n -t * -s 0  -x 0 -y 0 -Z 0 -z 20  -v circle -c black
n -t * -s 1  -x 0 -y 30 -Z 0 -z 20  -v circle -c black
n -t * -s 2  -x 0 -y 60 -Z 0 -z 20  -v circle -c black
n -t * -s 3  -x 0 -y 90 -Z 0 -z 20  -v circle -c black
n -t * -s 4  -x 30 -y 0 -Z 0 -z 20  -v circle -c black
n -t * -s 5  -x 30 -y 30 -Z 0 -z 20  -v circle -c black
n -t * -s 6  -x 30 -y 60 -Z 0 -z 20  -v circle -c black
n -t * -s 7  -x 30 -y 90 -Z 0 -z 20  -v circle -c black
n -t * -s 8  -x 60 -y 0 -Z 0 -z 20  -v circle -c black
n -t * -s 9  -x 60 -y 30 -Z 0 -z 20  -v circle -c black
n -t * -s 10  -x 60 -y 60 -Z 0 -z 20  -v circle -c black
n -t * -s 11  -x 60 -y 90 -Z 0 -z 20  -v circle -c black
n -t * -s 12  -x 90 -y 0 -Z 0 -z 20  -v circle -c black
n -t * -s 13  -x 90 -y 30 -Z 0 -z 20  -v circle -c black
n -t * -s 14  -x 90 -y 60 -Z 0 -z 20  -v circle -c black
n -t * -s 15  -x 90 -y 90 -Z 0 -z 20  -v circle -c black
n -t * -s 16  -x 120 -y 0 -Z 0 -z 20  -v circle -c black
n -t * -s 17  -x 120 -y 30 -Z 0 -z 20  -v circle -c black
n -t * -s 18  -x 120 -y 60 -Z 0 -z 20  -v circle -c black
n -t * -s 19  -x 120 -y 90 -Z 0 -z 20  -v circle -c black
V -t * -v 1.0a5 -a 0
W -t * -x 600 -y 600
A -t * -n 1 -p 0 -o 0x7fffffff -c 30 -a 1
A -t * -h 1 -m 1073741823 -s 0
c -t * -i 8 -n Green
c -t * -i 0 -n Blue
c -t * -i 4 -n Red
c -t * -i 9 -n Red
c -t * -i 5 -n Blue
c -t * -i 1 -n Blue
c -t * -i 6 -n Yellow
c -t * -i 2 -n Red
c -t * -i 7 -n Red
c -t * -i 3 -n Green
+ -t 0.088001372 -s 3 -d -1 -p message -e 32 -c 2 -a 0 -i 0 -k RTR 
- -t 0.088001372 -s 3 -d -1 -p message -e 32 -c 2 -a 0 -i 0 -k RTR
h -t 0.088001372 -s 3 -d -1 -p message -e 32 -c 2 -a 0 -i 0 -k RTR
r -t 0.089121472 -s 2 -d -1 -p message -e 32 -c 2 -a 0 -i 0 -k RTR
r -t 0.089121472 -s 7 -d -1 -p message -e 32 -c 2 -a 0 -i 0 -k RTR
r -t 0.089121513 -s 6 -d -1 -p message -e 32 -c 2 -a 0 -i 0 -k RTR
r -t 0.089121572 -s 1 -d -1 -p message -e 32 -c 2 -a 0 -i 0 -k RTR
r -t 0.089121572 -s 11 -d -1 -p message -e 32 -c 2 -a 0 -i 0 -k RTR
r -t 0.089121595 -s 5 -d -1 -p message -e 32 -c 2 -a 0 -i 0 -k RTR
r -t 0.089121595 -s 10 -d -1 -p message -e 32 -c 2 -a 0 -i 0 -k RTR
r -t 0.089121655 -s 9 -d -1 -p message -e 32 -c 2 -a 0 -i 0 -k RTR
r -t 0.089121672 -s 0 -d -1 -p message -e 32 -c 2 -a 0 -i 0 -k RTR
r -t 0.089121672 -s 15 -d -1 -p message -e 32 -c 2 -a 0 -i 0 -k RTR
r -t 0.089121688 -s 4 -d -1 -p message -e 32 -c 2 -a 0 -i 0 -k RTR
r -t 0.089121688 -s 14 -d -1 -p message -e 32 -c 2 -a 0 -i 0 -k RTR
r -t 0.089121732 -s 8 -d -1 -p message -e 32 -c 2 -a 0 -i 0 -k RTR
r -t 0.089121732 -s 13 -d -1 -p message -e 32 -c 2 -a 0 -i 0 -k RTR
r -t 0.089121772 -s 19 -d -1 -p message -e 32 -c 2 -a 0 -i 0 -k RTR
r -t 0.089121784 -s 18 -d -1 -p message -e 32 -c 2 -a 0 -i 0 -k RTR
r -t 0.089121796 -s 12 -d -1 -p message -e 32 -c 2 -a 0 -i 0 -k RTR
r -t 0.089121819 -s 17 -d -1 -p message -e 32 -c 2 -a 0 -i 0 -k RTR
r -t 0.089121872 -s 16 -d -1 -p message -e 32 -c 2 -a 0 -i 0 -k RTR
+ -t 0.197327164 -s 9 -d -1 -p message -e 32 -c 2 -a 0 -i 1 -k RTR 
- -t 0.197327164 -s 9 -d -1 -p message -e 32 -c 2 -a 0 -i 1 -k RTR
h -t 0.197327164 -s 9 -d -1 -p message -e 32 -c 2 -a 0 -i 1 -k RTR
r -t 0.198427264 -s 8 -d -1 -p message -e 32 -c 2 -a 0 -i 1 -k RTR
r -t 0.198427264 -s 5 -d -1 -p message -e 32 -c 2 -a 0 -i 1 -k RTR
r -t 0.198427264 -s 10 -d -1 -p message -e 32 -c 2 -a 0 -i 1 -k RTR
r -t 0.198427264 -s 13 -d -1 -p message -e 32 -c 2 -a 0 -i 1 -k RTR
r -t 0.198427305 -s 6 -d -1 -p message -e 32 -c 2 -a 0 -i 1 -k RTR
r -t 0.198427305 -s 4 -d -1 -p message -e 32 -c 2 -a 0 -i 1 -k RTR
r -t 0.198427305 -s 12 -d -1 -p message -e 32 -c 2 -a 0 -i 1 -k RTR
r -t 0.198427305 -s 14 -d -1 -p message -e 32 -c 2 -a 0 -i 1 -k RTR
r -t 0.198427364 -s 1 -d -1 -p message -e 32 -c 2 -a 0 -i 1 -k RTR
r -t 0.198427364 -s 11 -d -1 -p message -e 32 -c 2 -a 0 -i 1 -k RTR
r -t 0.198427364 -s 17 -d -1 -p message -e 32 -c 2 -a 0 -i 1 -k RTR
r -t 0.198427387 -s 7 -d -1 -p message -e 32 -c 2 -a 0 -i 1 -k RTR
r -t 0.198427387 -s 2 -d -1 -p message -e 32 -c 2 -a 0 -i 1 -k RTR
r -t 0.198427387 -s 0 -d -1 -p message -e 32 -c 2 -a 0 -i 1 -k RTR
r -t 0.198427387 -s 15 -d -1 -p message -e 32 -c 2 -a 0 -i 1 -k RTR
r -t 0.198427387 -s 16 -d -1 -p message -e 32 -c 2 -a 0 -i 1 -k RTR
r -t 0.198427387 -s 18 -d -1 -p message -e 32 -c 2 -a 0 -i 1 -k RTR
r -t 0.198427447 -s 3 -d -1 -p message -e 32 -c 2 -a 0 -i 1 -k RTR
r -t 0.198427447 -s 19 -d -1 -p message -e 32 -c 2 -a 0 -i 1 -k RTR
+ -t 0.229490150 -s 5 -d -1 -p message -e 32 -c 2 -a 0 -i 2 -k RTR 
- -t 0.229490150 -s 5 -d -1 -p message -e 32 -c 2 -a 0 -i 2 -k RTR
h -t 0.229490150 -s 5 -d -1 -p message -e 32 -c 2 -a 0 -i 2 -k RTR
r -t 0.230530250 -s 4 -d -1 -p message -e 32 -c 2 -a 0 -i 2 -k RTR
r -t 0.230530250 -s 1 -d -1 -p message -e 32 -c 2 -a 0 -i 2 -k RTR
r -t 0.230530250 -s 6 -d -1 -p message -e 32 -c 2 -a 0 -i 2 -k RTR
r -t 0.230530250 -s 9 -d -1 -p message -e 32 -c 2 -a 0 -i 2 -k RTR
r -t 0.230530291 -s 2 -d -1 -p message -e 32 -c 2 -a 0 -i 2 -k RTR
r -t 0.230530291 -s 0 -d -1 -p message -e 32 -c 2 -a 0 -i 2 -k RTR
r -t 0.230530291 -s 8 -d -1 -p message -e 32 -c 2 -a 0 -i 2 -k RTR
r -t 0.230530291 -s 10 -d -1 -p message -e 32 -c 2 -a 0 -i 2 -k RTR
r -t 0.230530350 -s 7 -d -1 -p message -e 32 -c 2 -a 0 -i 2 -k RTR
r -t 0.230530350 -s 13 -d -1 -p message -e 32 -c 2 -a 0 -i 2 -k RTR
r -t 0.230530373 -s 3 -d -1 -p message -e 32 -c 2 -a 0 -i 2 -k RTR
r -t 0.230530373 -s 11 -d -1 -p message -e 32 -c 2 -a 0 -i 2 -k RTR
r -t 0.230530373 -s 12 -d -1 -p message -e 32 -c 2 -a 0 -i 2 -k RTR
r -t 0.230530373 -s 14 -d -1 -p message -e 32 -c 2 -a 0 -i 2 -k RTR
r -t 0.230530432 -s 15 -d -1 -p message -e 32 -c 2 -a 0 -i 2 -k RTR
r -t 0.230530450 -s 17 -d -1 -p message -e 32 -c 2 -a 0 -i 2 -k RTR
r -t 0.230530466 -s 16 -d -1 -p message -e 32 -c 2 -a 0 -i 2 -k RTR
r -t 0.230530466 -s 18 -d -1 -p message -e 32 -c 2 -a 0 -i 2 -k RTR
r -t 0.230530510 -s 19 -d -1 -p message -e 32 -c 2 -a 0 -i 2 -k RTR
+ -t 0.329411126 -s 2 -d -1 -p message -e 32 -c 2 -a 0 -i 3 -k RTR 
- -t 0.329411126 -s 2 -d -1 -p message -e 32 -c 2 -a 0 -i 3 -k RTR
h -t 0.329411126 -s 2 -d -1 -p message -e 32 -c 2 -a 0 -i 3 -k RTR
r -t 0.330351226 -s 1 -d -1 -p message -e 32 -c 2 -a 0 -i 3 -k RTR
r -t 0.330351226 -s 3 -d -1 -p message -e 32 -c 2 -a 0 -i 3 -k RTR
r -t 0.330351226 -s 6 -d -1 -p message -e 32 -c 2 -a 0 -i 3 -k RTR
r -t 0.330351268 -s 5 -d -1 -p message -e 32 -c 2 -a 0 -i 3 -k RTR
r -t 0.330351268 -s 7 -d -1 -p message -e 32 -c 2 -a 0 -i 3 -k RTR
r -t 0.330351326 -s 0 -d -1 -p message -e 32 -c 2 -a 0 -i 3 -k RTR
r -t 0.330351326 -s 10 -d -1 -p message -e 32 -c 2 -a 0 -i 3 -k RTR
r -t 0.330351350 -s 4 -d -1 -p message -e 32 -c 2 -a 0 -i 3 -k RTR
r -t 0.330351350 -s 9 -d -1 -p message -e 32 -c 2 -a 0 -i 3 -k RTR
r -t 0.330351350 -s 11 -d -1 -p message -e 32 -c 2 -a 0 -i 3 -k RTR
r -t 0.330351409 -s 8 -d -1 -p message -e 32 -c 2 -a 0 -i 3 -k RTR
r -t 0.330351426 -s 14 -d -1 -p message -e 32 -c 2 -a 0 -i 3 -k RTR
r -t 0.330351443 -s 13 -d -1 -p message -e 32 -c 2 -a 0 -i 3 -k RTR
r -t 0.330351443 -s 15 -d -1 -p message -e 32 -c 2 -a 0 -i 3 -k RTR
r -t 0.330351487 -s 12 -d -1 -p message -e 32 -c 2 -a 0 -i 3 -k RTR
r -t 0.330351526 -s 18 -d -1 -p message -e 32 -c 2 -a 0 -i 3 -k RTR
r -t 0.330351539 -s 17 -d -1 -p message -e 32 -c 2 -a 0 -i 3 -k RTR
r -t 0.330351539 -s 19 -d -1 -p message -e 32 -c 2 -a 0 -i 3 -k RTR
r -t 0.330351574 -s 16 -d -1 -p message -e 32 -c 2 -a 0 -i 3 -k RTR
+ -t 0.352967135 -s 8 -d -1 -p message -e 32 -c 2 -a 0 -i 4 -k RTR 
- -t 0.352967135 -s 8 -d -1 -p message -e 32 -c 2 -a 0 -i 4 -k RTR
h -t 0.352967135 -s 8 -d -1 -p message -e 32 -c 2 -a 0 -i 4 -k RTR
r -t 0.353967235 -s 4 -d -1 -p message -e 32 -c 2 -a 0 -i 4 -k RTR
r -t 0.353967235 -s 9 -d -1 -p message -e 32 -c 2 -a 0 -i 4 -k RTR
r -t 0.353967235 -s 12 -d -1 -p message -e 32 -c 2 -a 0 -i 4 -k RTR
r -t 0.353967277 -s 5 -d -1 -p message -e 32 -c 2 -a 0 -i 4 -k RTR
r -t 0.353967277 -s 13 -d -1 -p message -e 32 -c 2 -a 0 -i 4 -k RTR
r -t 0.353967335 -s 0 -d -1 -p message -e 32 -c 2 -a 0 -i 4 -k RTR
r -t 0.353967335 -s 10 -d -1 -p message -e 32 -c 2 -a 0 -i 4 -k RTR
r -t 0.353967335 -s 16 -d -1 -p message -e 32 -c 2 -a 0 -i 4 -k RTR
r -t 0.353967359 -s 6 -d -1 -p message -e 32 -c 2 -a 0 -i 4 -k RTR
r -t 0.353967359 -s 1 -d -1 -p message -e 32 -c 2 -a 0 -i 4 -k RTR
r -t 0.353967359 -s 14 -d -1 -p message -e 32 -c 2 -a 0 -i 4 -k RTR
r -t 0.353967359 -s 17 -d -1 -p message -e 32 -c 2 -a 0 -i 4 -k RTR
r -t 0.353967418 -s 2 -d -1 -p message -e 32 -c 2 -a 0 -i 4 -k RTR
r -t 0.353967418 -s 18 -d -1 -p message -e 32 -c 2 -a 0 -i 4 -k RTR
r -t 0.353967435 -s 11 -d -1 -p message -e 32 -c 2 -a 0 -i 4 -k RTR
r -t 0.353967451 -s 7 -d -1 -p message -e 32 -c 2 -a 0 -i 4 -k RTR
r -t 0.353967451 -s 15 -d -1 -p message -e 32 -c 2 -a 0 -i 4 -k RTR
r -t 0.353967496 -s 3 -d -1 -p message -e 32 -c 2 -a 0 -i 4 -k RTR
r -t 0.353967496 -s 19 -d -1 -p message -e 32 -c 2 -a 0 -i 4 -k RTR
+ -t 0.441305651 -s 19 -d -1 -p message -e 32 -c 2 -a 0 -i 5 -k RTR 
- -t 0.441305651 -s 19 -d -1 -p message -e 32 -c 2 -a 0 -i 5 -k RTR
h -t 0.441305651 -s 19 -d -1 -p message -e 32 -c 2 -a 0 -i 5 -k RTR
r -t 0.442345751 -s 18 -d -1 -p message -e 32 -c 2 -a 0 -i 5 -k RTR
r -t 0.442345751 -s 15 -d -1 -p message -e 32 -c 2 -a 0 -i 5 -k RTR
r -t 0.442345792 -s 14 -d -1 -p message -e 32 -c 2 -a 0 -i 5 -k RTR
r -t 0.442345851 -s 17 -d -1 -p message -e 32 -c 2 -a 0 -i 5 -k RTR
r -t 0.442345851 -s 11 -d -1 -p message -e 32 -c 2 -a 0 -i 5 -k RTR
r -t 0.442345875 -s 13 -d -1 -p message -e 32 -c 2 -a 0 -i 5 -k RTR
r -t 0.442345875 -s 10 -d -1 -p message -e 32 -c 2 -a 0 -i 5 -k RTR
r -t 0.442345934 -s 9 -d -1 -p message -e 32 -c 2 -a 0 -i 5 -k RTR
r -t 0.442345951 -s 16 -d -1 -p message -e 32 -c 2 -a 0 -i 5 -k RTR
r -t 0.442345951 -s 7 -d -1 -p message -e 32 -c 2 -a 0 -i 5 -k RTR
r -t 0.442345967 -s 12 -d -1 -p message -e 32 -c 2 -a 0 -i 5 -k RTR
r -t 0.442345967 -s 6 -d -1 -p message -e 32 -c 2 -a 0 -i 5 -k RTR
r -t 0.442346012 -s 8 -d -1 -p message -e 32 -c 2 -a 0 -i 5 -k RTR
r -t 0.442346012 -s 5 -d -1 -p message -e 32 -c 2 -a 0 -i 5 -k RTR
r -t 0.442346051 -s 3 -d -1 -p message -e 32 -c 2 -a 0 -i 5 -k RTR
r -t 0.442346063 -s 2 -d -1 -p message -e 32 -c 2 -a 0 -i 5 -k RTR
r -t 0.442346075 -s 4 -d -1 -p message -e 32 -c 2 -a 0 -i 5 -k RTR
r -t 0.442346098 -s 1 -d -1 -p message -e 32 -c 2 -a 0 -i 5 -k RTR
r -t 0.442346151 -s 0 -d -1 -p message -e 32 -c 2 -a 0 -i 5 -k RTR
+ -t 0.521724294 -s 12 -d -1 -p message -e 32 -c 2 -a 0 -i 6 -k RTR 
- -t 0.521724294 -s 12 -d -1 -p message -e 32 -c 2 -a 0 -i 6 -k RTR
h -t 0.521724294 -s 12 -d -1 -p message -e 32 -c 2 -a 0 -i 6 -k RTR
r -t 0.522624394 -s 8 -d -1 -p message -e 32 -c 2 -a 0 -i 6 -k RTR
r -t 0.522624394 -s 13 -d -1 -p message -e 32 -c 2 -a 0 -i 6 -k RTR
r -t 0.522624394 -s 16 -d -1 -p message -e 32 -c 2 -a 0 -i 6 -k RTR
r -t 0.522624436 -s 9 -d -1 -p message -e 32 -c 2 -a 0 -i 6 -k RTR
r -t 0.522624436 -s 17 -d -1 -p message -e 32 -c 2 -a 0 -i 6 -k RTR
r -t 0.522624494 -s 4 -d -1 -p message -e 32 -c 2 -a 0 -i 6 -k RTR
r -t 0.522624494 -s 14 -d -1 -p message -e 32 -c 2 -a 0 -i 6 -k RTR
r -t 0.522624518 -s 10 -d -1 -p message -e 32 -c 2 -a 0 -i 6 -k RTR
r -t 0.522624518 -s 5 -d -1 -p message -e 32 -c 2 -a 0 -i 6 -k RTR
r -t 0.522624518 -s 18 -d -1 -p message -e 32 -c 2 -a 0 -i 6 -k RTR
r -t 0.522624577 -s 6 -d -1 -p message -e 32 -c 2 -a 0 -i 6 -k RTR
r -t 0.522624594 -s 0 -d -1 -p message -e 32 -c 2 -a 0 -i 6 -k RTR
r -t 0.522624594 -s 15 -d -1 -p message -e 32 -c 2 -a 0 -i 6 -k RTR
r -t 0.522624611 -s 11 -d -1 -p message -e 32 -c 2 -a 0 -i 6 -k RTR
r -t 0.522624611 -s 1 -d -1 -p message -e 32 -c 2 -a 0 -i 6 -k RTR
r -t 0.522624611 -s 19 -d -1 -p message -e 32 -c 2 -a 0 -i 6 -k RTR
r -t 0.522624655 -s 7 -d -1 -p message -e 32 -c 2 -a 0 -i 6 -k RTR
r -t 0.522624655 -s 2 -d -1 -p message -e 32 -c 2 -a 0 -i 6 -k RTR
r -t 0.522624719 -s 3 -d -1 -p message -e 32 -c 2 -a 0 -i 6 -k RTR
+ -t 0.620020258 -s 0 -d -1 -p message -e 32 -c 2 -a 0 -i 7 -k RTR 
- -t 0.620020258 -s 0 -d -1 -p message -e 32 -c 2 -a 0 -i 7 -k RTR
h -t 0.620020258 -s 0 -d -1 -p message -e 32 -c 2 -a 0 -i 7 -k RTR
r -t 0.621140358 -s 1 -d -1 -p message -e 32 -c 2 -a 0 -i 7 -k RTR
r -t 0.621140358 -s 4 -d -1 -p message -e 32 -c 2 -a 0 -i 7 -k RTR
r -t 0.621140400 -s 5 -d -1 -p message -e 32 -c 2 -a 0 -i 7 -k RTR
r -t 0.621140458 -s 2 -d -1 -p message -e 32 -c 2 -a 0 -i 7 -k RTR
r -t 0.621140458 -s 8 -d -1 -p message -e 32 -c 2 -a 0 -i 7 -k RTR
r -t 0.621140482 -s 6 -d -1 -p message -e 32 -c 2 -a 0 -i 7 -k RTR
r -t 0.621140482 -s 9 -d -1 -p message -e 32 -c 2 -a 0 -i 7 -k RTR
r -t 0.621140541 -s 10 -d -1 -p message -e 32 -c 2 -a 0 -i 7 -k RTR
r -t 0.621140558 -s 3 -d -1 -p message -e 32 -c 2 -a 0 -i 7 -k RTR
r -t 0.621140558 -s 12 -d -1 -p message -e 32 -c 2 -a 0 -i 7 -k RTR
r -t 0.621140574 -s 7 -d -1 -p message -e 32 -c 2 -a 0 -i 7 -k RTR
r -t 0.621140574 -s 13 -d -1 -p message -e 32 -c 2 -a 0 -i 7 -k RTR
r -t 0.621140619 -s 11 -d -1 -p message -e 32 -c 2 -a 0 -i 7 -k RTR
r -t 0.621140619 -s 14 -d -1 -p message -e 32 -c 2 -a 0 -i 7 -k RTR
r -t 0.621140658 -s 16 -d -1 -p message -e 32 -c 2 -a 0 -i 7 -k RTR
r -t 0.621140671 -s 17 -d -1 -p message -e 32 -c 2 -a 0 -i 7 -k RTR
r -t 0.621140682 -s 15 -d -1 -p message -e 32 -c 2 -a 0 -i 7 -k RTR
r -t 0.621140705 -s 18 -d -1 -p message -e 32 -c 2 -a 0 -i 7 -k RTR
r -t 0.621140758 -s 19 -d -1 -p message -e 32 -c 2 -a 0 -i 7 -k RTR
+ -t 0.699549391 -s 11 -d -1 -p message -e 32 -c 2 -a 0 -i 8 -k RTR 
- -t 0.699549391 -s 11 -d -1 -p message -e 32 -c 2 -a 0 -i 8 -k RTR
h -t 0.699549391 -s 11 -d -1 -p message -e 32 -c 2 -a 0 -i 8 -k RTR
r -t 0.700609491 -s 10 -d -1 -p message -e 32 -c 2 -a 0 -i 8 -k RTR
r -t 0.700609491 -s 7 -d -1 -p message -e 32 -c 2 -a 0 -i 8 -k RTR
r -t 0.700609491 -s 15 -d -1 -p message -e 32 -c 2 -a 0 -i 8 -k RTR
r -t 0.700609533 -s 6 -d -1 -p message -e 32 -c 2 -a 0 -i 8 -k RTR
r -t 0.700609533 -s 14 -d -1 -p message -e 32 -c 2 -a 0 -i 8 -k RTR
r -t 0.700609591 -s 9 -d -1 -p message -e 32 -c 2 -a 0 -i 8 -k RTR
r -t 0.700609591 -s 3 -d -1 -p message -e 32 -c 2 -a 0 -i 8 -k RTR
r -t 0.700609591 -s 19 -d -1 -p message -e 32 -c 2 -a 0 -i 8 -k RTR
r -t 0.700609615 -s 5 -d -1 -p message -e 32 -c 2 -a 0 -i 8 -k RTR
r -t 0.700609615 -s 2 -d -1 -p message -e 32 -c 2 -a 0 -i 8 -k RTR
r -t 0.700609615 -s 13 -d -1 -p message -e 32 -c 2 -a 0 -i 8 -k RTR
r -t 0.700609615 -s 18 -d -1 -p message -e 32 -c 2 -a 0 -i 8 -k RTR
r -t 0.700609674 -s 1 -d -1 -p message -e 32 -c 2 -a 0 -i 8 -k RTR
r -t 0.700609674 -s 17 -d -1 -p message -e 32 -c 2 -a 0 -i 8 -k RTR
r -t 0.700609691 -s 8 -d -1 -p message -e 32 -c 2 -a 0 -i 8 -k RTR
r -t 0.700609708 -s 4 -d -1 -p message -e 32 -c 2 -a 0 -i 8 -k RTR
r -t 0.700609708 -s 12 -d -1 -p message -e 32 -c 2 -a 0 -i 8 -k RTR
r -t 0.700609752 -s 0 -d -1 -p message -e 32 -c 2 -a 0 -i 8 -k RTR
r -t 0.700609752 -s 16 -d -1 -p message -e 32 -c 2 -a 0 -i 8 -k RTR
+ -t 0.818284921 -s 13 -d -1 -p message -e 32 -c 2 -a 0 -i 9 -k RTR 
- -t 0.818284921 -s 13 -d -1 -p message -e 32 -c 2 -a 0 -i 9 -k RTR
h -t 0.818284921 -s 13 -d -1 -p message -e 32 -c 2 -a 0 -i 9 -k RTR
r -t 0.819565021 -s 12 -d -1 -p message -e 32 -c 2 -a 0 -i 9 -k RTR
r -t 0.819565021 -s 9 -d -1 -p message -e 32 -c 2 -a 0 -i 9 -k RTR
r -t 0.819565021 -s 14 -d -1 -p message -e 32 -c 2 -a 0 -i 9 -k RTR
r -t 0.819565021 -s 17 -d -1 -p message -e 32 -c 2 -a 0 -i 9 -k RTR
r -t 0.819565063 -s 10 -d -1 -p message -e 32 -c 2 -a 0 -i 9 -k RTR
r -t 0.819565063 -s 8 -d -1 -p message -e 32 -c 2 -a 0 -i 9 -k RTR
r -t 0.819565063 -s 16 -d -1 -p message -e 32 -c 2 -a 0 -i 9 -k RTR
r -t 0.819565063 -s 18 -d -1 -p message -e 32 -c 2 -a 0 -i 9 -k RTR
r -t 0.819565121 -s 5 -d -1 -p message -e 32 -c 2 -a 0 -i 9 -k RTR
r -t 0.819565121 -s 15 -d -1 -p message -e 32 -c 2 -a 0 -i 9 -k RTR
r -t 0.819565145 -s 11 -d -1 -p message -e 32 -c 2 -a 0 -i 9 -k RTR
r -t 0.819565145 -s 6 -d -1 -p message -e 32 -c 2 -a 0 -i 9 -k RTR
r -t 0.819565145 -s 4 -d -1 -p message -e 32 -c 2 -a 0 -i 9 -k RTR
r -t 0.819565145 -s 19 -d -1 -p message -e 32 -c 2 -a 0 -i 9 -k RTR
r -t 0.819565204 -s 7 -d -1 -p message -e 32 -c 2 -a 0 -i 9 -k RTR
r -t 0.819565221 -s 1 -d -1 -p message -e 32 -c 2 -a 0 -i 9 -k RTR
r -t 0.819565238 -s 2 -d -1 -p message -e 32 -c 2 -a 0 -i 9 -k RTR
r -t 0.819565238 -s 0 -d -1 -p message -e 32 -c 2 -a 0 -i 9 -k RTR
r -t 0.819565282 -s 3 -d -1 -p message -e 32 -c 2 -a 0 -i 9 -k RTR
+ -t 0.852642458 -s 7 -d -1 -p message -e 32 -c 2 -a 0 -i 10 -k RTR 
- -t 0.852642458 -s 7 -d -1 -p message -e 32 -c 2 -a 0 -i 10 -k RTR
h -t 0.852642458 -s 7 -d -1 -p message -e 32 -c 2 -a 0 -i 10 -k RTR
r -t 0.853542558 -s 6 -d -1 -p message -e 32 -c 2 -a 0 -i 10 -k RTR
r -t 0.853542558 -s 3 -d -1 -p message -e 32 -c 2 -a 0 -i 10 -k RTR
r -t 0.853542558 -s 11 -d -1 -p message -e 32 -c 2 -a 0 -i 10 -k RTR
r -t 0.853542600 -s 2 -d -1 -p message -e 32 -c 2 -a 0 -i 10 -k RTR
r -t 0.853542600 -s 10 -d -1 -p message -e 32 -c 2 -a 0 -i 10 -k RTR
r -t 0.853542658 -s 5 -d -1 -p message -e 32 -c 2 -a 0 -i 10 -k RTR
r -t 0.853542658 -s 15 -d -1 -p message -e 32 -c 2 -a 0 -i 10 -k RTR
r -t 0.853542682 -s 1 -d -1 -p message -e 32 -c 2 -a 0 -i 10 -k RTR
r -t 0.853542682 -s 9 -d -1 -p message -e 32 -c 2 -a 0 -i 10 -k RTR
r -t 0.853542682 -s 14 -d -1 -p message -e 32 -c 2 -a 0 -i 10 -k RTR
r -t 0.853542741 -s 13 -d -1 -p message -e 32 -c 2 -a 0 -i 10 -k RTR
r -t 0.853542758 -s 4 -d -1 -p message -e 32 -c 2 -a 0 -i 10 -k RTR
r -t 0.853542758 -s 19 -d -1 -p message -e 32 -c 2 -a 0 -i 10 -k RTR
r -t 0.853542774 -s 0 -d -1 -p message -e 32 -c 2 -a 0 -i 10 -k RTR
r -t 0.853542774 -s 8 -d -1 -p message -e 32 -c 2 -a 0 -i 10 -k RTR
r -t 0.853542774 -s 18 -d -1 -p message -e 32 -c 2 -a 0 -i 10 -k RTR
r -t 0.853542819 -s 12 -d -1 -p message -e 32 -c 2 -a 0 -i 10 -k RTR
r -t 0.853542819 -s 17 -d -1 -p message -e 32 -c 2 -a 0 -i 10 -k RTR
r -t 0.853542882 -s 16 -d -1 -p message -e 32 -c 2 -a 0 -i 10 -k RTR
+ -t 0.940375874 -s 15 -d -1 -p message -e 32 -c 2 -a 0 -i 11 -k RTR 
- -t 0.940375874 -s 15 -d -1 -p message -e 32 -c 2 -a 0 -i 11 -k RTR
h -t 0.940375874 -s 15 -d -1 -p message -e 32 -c 2 -a 0 -i 11 -k RTR
r -t 0.941535974 -s 14 -d -1 -p message -e 32 -c 2 -a 0 -i 11 -k RTR
r -t 0.941535974 -s 11 -d -1 -p message -e 32 -c 2 -a 0 -i 11 -k RTR
r -t 0.941535974 -s 19 -d -1 -p message -e 32 -c 2 -a 0 -i 11 -k RTR
r -t 0.941536016 -s 10 -d -1 -p message -e 32 -c 2 -a 0 -i 11 -k RTR
r -t 0.941536016 -s 18 -d -1 -p message -e 32 -c 2 -a 0 -i 11 -k RTR
r -t 0.941536074 -s 13 -d -1 -p message -e 32 -c 2 -a 0 -i 11 -k RTR
r -t 0.941536074 -s 7 -d -1 -p message -e 32 -c 2 -a 0 -i 11 -k RTR
r -t 0.941536098 -s 9 -d -1 -p message -e 32 -c 2 -a 0 -i 11 -k RTR
r -t 0.941536098 -s 6 -d -1 -p message -e 32 -c 2 -a 0 -i 11 -k RTR
r -t 0.941536098 -s 17 -d -1 -p message -e 32 -c 2 -a 0 -i 11 -k RTR
r -t 0.941536157 -s 5 -d -1 -p message -e 32 -c 2 -a 0 -i 11 -k RTR
r -t 0.941536174 -s 12 -d -1 -p message -e 32 -c 2 -a 0 -i 11 -k RTR
r -t 0.941536174 -s 3 -d -1 -p message -e 32 -c 2 -a 0 -i 11 -k RTR
r -t 0.941536191 -s 8 -d -1 -p message -e 32 -c 2 -a 0 -i 11 -k RTR
r -t 0.941536191 -s 2 -d -1 -p message -e 32 -c 2 -a 0 -i 11 -k RTR
r -t 0.941536191 -s 16 -d -1 -p message -e 32 -c 2 -a 0 -i 11 -k RTR
r -t 0.941536235 -s 4 -d -1 -p message -e 32 -c 2 -a 0 -i 11 -k RTR
r -t 0.941536235 -s 1 -d -1 -p message -e 32 -c 2 -a 0 -i 11 -k RTR
r -t 0.941536299 -s 0 -d -1 -p message -e 32 -c 2 -a 0 -i 11 -k RTR
+ -t 1.000000000 -s 0 -d -1 -p tcp -e 40 -c 2 -a 0 -i 12 -k AGT 
- -t 1.000000000 -s 0 -d -1 -p tcp -e 40 -c 2 -a 0 -i 12 -k AGT
h -t 1.000000000 -s 0 -d -1 -p tcp -e 40 -c 2 -a 0 -i 12 -k AGT
+ -t 1.000000000 -s 0 -d 19 -p tcp -e 60 -c 2 -a 0 -i 12 -k RTR 
- -t 1.000000000 -s 0 -d 19 -p tcp -e 60 -c 2 -a 0 -i 12 -k RTR
h -t 1.000000000 -s 0 -d 19 -p tcp -e 60 -c 2 -a 0 -i 12 -k RTR
+ -t 1.000000000 -s 1 -d -1 -p tcp -e 40 -c 2 -a 0 -i 13 -k AGT 
- -t 1.000000000 -s 1 -d -1 -p tcp -e 40 -c 2 -a 0 -i 13 -k AGT
h -t 1.000000000 -s 1 -d -1 -p tcp -e 40 -c 2 -a 0 -i 13 -k AGT
+ -t 1.000000000 -s 2 -d -1 -p tcp -e 40 -c 2 -a 0 -i 14 -k AGT 
- -t 1.000000000 -s 2 -d -1 -p tcp -e 40 -c 2 -a 0 -i 14 -k AGT
h -t 1.000000000 -s 2 -d -1 -p tcp -e 40 -c 2 -a 0 -i 14 -k AGT
+ -t 1.000000000 -s 3 -d -1 -p tcp -e 40 -c 2 -a 0 -i 15 -k AGT 
- -t 1.000000000 -s 3 -d -1 -p tcp -e 40 -c 2 -a 0 -i 15 -k AGT
h -t 1.000000000 -s 3 -d -1 -p tcp -e 40 -c 2 -a 0 -i 15 -k AGT
+ -t 1.000000000 -s 4 -d -1 -p tcp -e 40 -c 2 -a 0 -i 16 -k AGT 
- -t 1.000000000 -s 4 -d -1 -p tcp -e 40 -c 2 -a 0 -i 16 -k AGT
h -t 1.000000000 -s 4 -d -1 -p tcp -e 40 -c 2 -a 0 -i 16 -k AGT
+ -t 1.000000000 -s 4 -d 15 -p tcp -e 60 -c 2 -a 0 -i 16 -k RTR 
- -t 1.000000000 -s 4 -d 15 -p tcp -e 60 -c 2 -a 0 -i 16 -k RTR
h -t 1.000000000 -s 4 -d 15 -p tcp -e 60 -c 2 -a 0 -i 16 -k RTR
+ -t 1.000000000 -s 5 -d -1 -p tcp -e 40 -c 2 -a 0 -i 17 -k AGT 
- -t 1.000000000 -s 5 -d -1 -p tcp -e 40 -c 2 -a 0 -i 17 -k AGT
h -t 1.000000000 -s 5 -d -1 -p tcp -e 40 -c 2 -a 0 -i 17 -k AGT
+ -t 1.000000000 -s 6 -d -1 -p tcp -e 40 -c 2 -a 0 -i 18 -k AGT 
- -t 1.000000000 -s 6 -d -1 -p tcp -e 40 -c 2 -a 0 -i 18 -k AGT
h -t 1.000000000 -s 6 -d -1 -p tcp -e 40 -c 2 -a 0 -i 18 -k AGT
+ -t 1.000000000 -s 6 -d 13 -p tcp -e 60 -c 2 -a 0 -i 18 -k RTR 
- -t 1.000000000 -s 6 -d 13 -p tcp -e 60 -c 2 -a 0 -i 18 -k RTR
h -t 1.000000000 -s 6 -d 13 -p tcp -e 60 -c 2 -a 0 -i 18 -k RTR
+ -t 1.000000000 -s 7 -d -1 -p tcp -e 40 -c 2 -a 0 -i 19 -k AGT 
- -t 1.000000000 -s 7 -d -1 -p tcp -e 40 -c 2 -a 0 -i 19 -k AGT
h -t 1.000000000 -s 7 -d -1 -p tcp -e 40 -c 2 -a 0 -i 19 -k AGT
+ -t 1.000000000 -s 7 -d 12 -p tcp -e 60 -c 2 -a 0 -i 19 -k RTR 
- -t 1.000000000 -s 7 -d 12 -p tcp -e 60 -c 2 -a 0 -i 19 -k RTR
h -t 1.000000000 -s 7 -d 12 -p tcp -e 60 -c 2 -a 0 -i 19 -k RTR
+ -t 1.000000000 -s 8 -d -1 -p tcp -e 40 -c 2 -a 0 -i 20 -k AGT 
- -t 1.000000000 -s 8 -d -1 -p tcp -e 40 -c 2 -a 0 -i 20 -k AGT
h -t 1.000000000 -s 8 -d -1 -p tcp -e 40 -c 2 -a 0 -i 20 -k AGT
+ -t 1.000000000 -s 8 -d 11 -p tcp -e 60 -c 2 -a 0 -i 20 -k RTR 
- -t 1.000000000 -s 8 -d 11 -p tcp -e 60 -c 2 -a 0 -i 20 -k RTR
h -t 1.000000000 -s 8 -d 11 -p tcp -e 60 -c 2 -a 0 -i 20 -k RTR
+ -t 1.000000000 -s 9 -d -1 -p tcp -e 40 -c 2 -a 0 -i 21 -k AGT 
- -t 1.000000000 -s 9 -d -1 -p tcp -e 40 -c 2 -a 0 -i 21 -k AGT
h -t 1.000000000 -s 9 -d -1 -p tcp -e 40 -c 2 -a 0 -i 21 -k AGT
r -t 1.007587103 -s 15 -d 15 -p tcp -e 60 -c 2 -a 0 -i 16 -k AGT
+ -t 1.007587103 -s 15 -d -1 -p ack -e 40 -c 2 -a 0 -i 22 -k AGT 
- -t 1.007587103 -s 15 -d -1 -p ack -e 40 -c 2 -a 0 -i 22 -k AGT
h -t 1.007587103 -s 15 -d -1 -p ack -e 40 -c 2 -a 0 -i 22 -k AGT
r -t 1.013529915 -s 11 -d 11 -p tcp -e 60 -c 2 -a 0 -i 20 -k AGT
+ -t 1.013529915 -s 11 -d -1 -p ack -e 40 -c 2 -a 0 -i 23 -k AGT 
- -t 1.013529915 -s 11 -d -1 -p ack -e 40 -c 2 -a 0 -i 23 -k AGT
h -t 1.013529915 -s 11 -d -1 -p ack -e 40 -c 2 -a 0 -i 23 -k AGT
+ -t 1.013529915 -s 11 -d 8 -p ack -e 60 -c 2 -a 0 -i 23 -k RTR 
- -t 1.013529915 -s 11 -d 8 -p ack -e 60 -c 2 -a 0 -i 23 -k RTR
h -t 1.013529915 -s 11 -d 8 -p ack -e 60 -c 2 -a 0 -i 23 -k RTR
r -t 1.015574815 -s 8 -d 8 -p ack -e 60 -c 2 -a 0 -i 23 -k AGT
+ -t 1.015574815 -s 8 -d -1 -p tcp -e 1040 -c 2 -a 0 -i 24 -k AGT 
- -t 1.015574815 -s 8 -d -1 -p tcp -e 1040 -c 2 -a 0 -i 24 -k AGT
h -t 1.015574815 -s 8 -d -1 -p tcp -e 1040 -c 2 -a 0 -i 24 -k AGT
+ -t 1.015574815 -s 8 -d 11 -p tcp -e 1060 -c 2 -a 0 -i 24 -k RTR 
- -t 1.015574815 -s 8 -d 11 -p tcp -e 1060 -c 2 -a 0 -i 24 -k RTR
h -t 1.015574815 -s 8 -d 11 -p tcp -e 1060 -c 2 -a 0 -i 24 -k RTR
+ -t 1.015574815 -s 8 -d -1 -p tcp -e 1040 -c 2 -a 0 -i 25 -k AGT 
- -t 1.015574815 -s 8 -d -1 -p tcp -e 1040 -c 2 -a 0 -i 25 -k AGT
h -t 1.015574815 -s 8 -d -1 -p tcp -e 1040 -c 2 -a 0 -i 25 -k AGT
+ -t 1.015574815 -s 8 -d 11 -p tcp -e 1060 -c 2 -a 0 -i 25 -k RTR 
- -t 1.015574815 -s 8 -d 11 -p tcp -e 1060 -c 2 -a 0 -i 25 -k RTR
h -t 1.015574815 -s 8 -d 11 -p tcp -e 1060 -c 2 -a 0 -i 25 -k RTR
r -t 1.017599710 -s 13 -d 13 -p tcp -e 60 -c 2 -a 0 -i 18 -k AGT
+ -t 1.017599710 -s 13 -d -1 -p ack -e 40 -c 2 -a 0 -i 26 -k AGT 
- -t 1.017599710 -s 13 -d -1 -p ack -e 40 -c 2 -a 0 -i 26 -k AGT
h -t 1.017599710 -s 13 -d -1 -p ack -e 40 -c 2 -a 0 -i 26 -k AGT
r -t 1.027724751 -s 11 -d 11 -p tcp -e 1060 -c 2 -a 0 -i 24 -k AGT
+ -t 1.027724751 -s 11 -d -1 -p ack -e 40 -c 2 -a 0 -i 27 -k AGT 
- -t 1.027724751 -s 11 -d -1 -p ack -e 40 -c 2 -a 0 -i 27 -k AGT
h -t 1.027724751 -s 11 -d -1 -p ack -e 40 -c 2 -a 0 -i 27 -k AGT
+ -t 1.027724751 -s 11 -d 8 -p ack -e 60 -c 2 -a 0 -i 27 -k RTR 
- -t 1.027724751 -s 11 -d 8 -p ack -e 60 -c 2 -a 0 -i 27 -k RTR
h -t 1.027724751 -s 11 -d 8 -p ack -e 60 -c 2 -a 0 -i 27 -k RTR
r -t 1.038029951 -s 11 -d 11 -p tcp -e 1060 -c 2 -a 0 -i 25 -k AGT
+ -t 1.038029951 -s 11 -d -1 -p ack -e 40 -c 2 -a 0 -i 29 -k AGT 
- -t 1.038029951 -s 11 -d -1 -p ack -e 40 -c 2 -a 0 -i 29 -k AGT
h -t 1.038029951 -s 11 -d -1 -p ack -e 40 -c 2 -a 0 -i 29 -k AGT
+ -t 1.038029951 -s 11 -d 8 -p ack -e 60 -c 2 -a 0 -i 29 -k RTR 
- -t 1.038029951 -s 11 -d 8 -p ack -e 60 -c 2 -a 0 -i 29 -k RTR
h -t 1.038029951 -s 11 -d 8 -p ack -e 60 -c 2 -a 0 -i 29 -k RTR
+ -t 1.039009780 -s 14 -d -1 -p message -e 32 -c 2 -a 0 -i 28 -k RTR 
- -t 1.039009780 -s 14 -d -1 -p message -e 32 -c 2 -a 0 -i 28 -k RTR
h -t 1.039009780 -s 14 -d -1 -p message -e 32 -c 2 -a 0 -i 28 -k RTR
r -t 1.040054851 -s 8 -d 8 -p ack -e 60 -c 2 -a 0 -i 27 -k AGT
+ -t 1.040054851 -s 8 -d -1 -p tcp -e 1040 -c 2 -a 0 -i 30 -k AGT 
- -t 1.040054851 -s 8 -d -1 -p tcp -e 1040 -c 2 -a 0 -i 30 -k AGT
h -t 1.040054851 -s 8 -d -1 -p tcp -e 1040 -c 2 -a 0 -i 30 -k AGT
+ -t 1.040054851 -s 8 -d 11 -p tcp -e 1060 -c 2 -a 0 -i 30 -k RTR 
- -t 1.040054851 -s 8 -d 11 -p tcp -e 1060 -c 2 -a 0 -i 30 -k RTR
h -t 1.040054851 -s 8 -d 11 -p tcp -e 1060 -c 2 -a 0 -i 30 -k RTR
+ -t 1.040054851 -s 8 -d -1 -p tcp -e 1040 -c 2 -a 0 -i 31 -k AGT 
- -t 1.040054851 -s 8 -d -1 -p tcp -e 1040 -c 2 -a 0 -i 31 -k AGT
h -t 1.040054851 -s 8 -d -1 -p tcp -e 1040 -c 2 -a 0 -i 31 -k AGT
+ -t 1.040054851 -s 8 -d 11 -p tcp -e 1060 -c 2 -a 0 -i 31 -k RTR 
- -t 1.040054851 -s 8 -d 11 -p tcp -e 1060 -c 2 -a 0 -i 31 -k RTR
h -t 1.040054851 -s 8 -d 11 -p tcp -e 1060 -c 2 -a 0 -i 31 -k RTR
r -t 1.042060051 -s 8 -d 8 -p ack -e 60 -c 2 -a 0 -i 29 -k AGT
+ -t 1.042060051 -s 8 -d -1 -p tcp -e 1040 -c 2 -a 0 -i 32 -k AGT 
- -t 1.042060051 -s 8 -d -1 -p tcp -e 1040 -c 2 -a 0 -i 32 -k AGT
h -t 1.042060051 -s 8 -d -1 -p tcp -e 1040 -c 2 -a 0 -i 32 -k AGT
+ -t 1.042060051 -s 8 -d 11 -p tcp -e 1060 -c 2 -a 0 -i 32 -k RTR 
- -t 1.042060051 -s 8 -d 11 -p tcp -e 1060 -c 2 -a 0 -i 32 -k RTR
h -t 1.042060051 -s 8 -d 11 -p tcp -e 1060 -c 2 -a 0 -i 32 -k RTR
+ -t 1.042060051 -s 8 -d -1 -p tcp -e 1040 -c 2 -a 0 -i 33 -k AGT 
- -t 1.042060051 -s 8 -d -1 -p tcp -e 1040 -c 2 -a 0 -i 33 -k AGT
h -t 1.042060051 -s 8 -d -1 -p tcp -e 1040 -c 2 -a 0 -i 33 -k AGT
+ -t 1.042060051 -s 8 -d 11 -p tcp -e 1060 -c 2 -a 0 -i 33 -k RTR 
- -t 1.042060051 -s 8 -d 11 -p tcp -e 1060 -c 2 -a 0 -i 33 -k RTR
h -t 1.042060051 -s 8 -d 11 -p tcp -e 1060 -c 2 -a 0 -i 33 -k RTR
r -t 1.043284375 -s 13 -d -1 -p message -e 32 -c 2 -a 0 -i 28 -k RTR
r -t 1.043284375 -s 10 -d -1 -p message -e 32 -c 2 -a 0 -i 28 -k RTR
r -t 1.043284375 -s 15 -d -1 -p message -e 32 -c 2 -a 0 -i 28 -k RTR
r -t 1.043284375 -s 18 -d -1 -p message -e 32 -c 2 -a 0 -i 28 -k RTR
r -t 1.043284416 -s 11 -d -1 -p message -e 32 -c 2 -a 0 -i 28 -k RTR
r -t 1.043284416 -s 9 -d -1 -p message -e 32 -c 2 -a 0 -i 28 -k RTR
r -t 1.043284416 -s 17 -d -1 -p message -e 32 -c 2 -a 0 -i 28 -k RTR
r -t 1.043284416 -s 19 -d -1 -p message -e 32 -c 2 -a 0 -i 28 -k RTR
r -t 1.043284475 -s 12 -d -1 -p message -e 32 -c 2 -a 0 -i 28 -k RTR
r -t 1.043284475 -s 6 -d -1 -p message -e 32 -c 2 -a 0 -i 28 -k RTR
r -t 1.043284498 -s 8 -d -1 -p message -e 32 -c 2 -a 0 -i 28 -k RTR
r -t 1.043284498 -s 7 -d -1 -p message -e 32 -c 2 -a 0 -i 28 -k RTR
r -t 1.043284498 -s 5 -d -1 -p message -e 32 -c 2 -a 0 -i 28 -k RTR
+ -t 1.043284498 -s 5 -d 14 -p tcp -e 80 -c 2 -a 0 -i 17 -k RTR 
- -t 1.043284498 -s 5 -d 14 -p tcp -e 80 -c 2 -a 0 -i 17 -k RTR
h -t 1.043284498 -s 5 -d 14 -p tcp -e 80 -c 2 -a 0 -i 17 -k RTR
r -t 1.043284498 -s 16 -d -1 -p message -e 32 -c 2 -a 0 -i 28 -k RTR
r -t 1.043284558 -s 4 -d -1 -p message -e 32 -c 2 -a 0 -i 28 -k RTR
r -t 1.043284575 -s 2 -d -1 -p message -e 32 -c 2 -a 0 -i 28 -k RTR
r -t 1.043284591 -s 3 -d -1 -p message -e 32 -c 2 -a 0 -i 28 -k RTR
r -t 1.043284591 -s 1 -d -1 -p message -e 32 -c 2 -a 0 -i 28 -k RTR
r -t 1.043284635 -s 0 -d -1 -p message -e 32 -c 2 -a 0 -i 28 -k RTR
r -t 1.055572434 -s 11 -d 11 -p tcp -e 1060 -c 2 -a 0 -i 30 -k AGT
+ -t 1.055572434 -s 11 -d -1 -p ack -e 40 -c 2 -a 0 -i 34 -k AGT 
- -t 1.055572434 -s 11 -d -1 -p ack -e 40 -c 2 -a 0 -i 34 -k AGT
h -t 1.055572434 -s 11 -d -1 -p ack -e 40 -c 2 -a 0 -i 34 -k AGT
+ -t 1.055572434 -s 11 -d 8 -p ack -e 60 -c 2 -a 0 -i 34 -k RTR 
- -t 1.055572434 -s 11 -d 8 -p ack -e 60 -c 2 -a 0 -i 34 -k RTR
h -t 1.055572434 -s 11 -d 8 -p ack -e 60 -c 2 -a 0 -i 34 -k RTR
r -t 1.065577634 -s 11 -d 11 -p tcp -e 1060 -c 2 -a 0 -i 31 -k AGT
+ -t 1.065577634 -s 11 -d -1 -p ack -e 40 -c 2 -a 0 -i 35 -k AGT 
- -t 1.065577634 -s 11 -d -1 -p ack -e 40 -c 2 -a 0 -i 35 -k AGT
h -t 1.065577634 -s 11 -d -1 -p ack -e 40 -c 2 -a 0 -i 35 -k AGT
+ -t 1.065577634 -s 11 -d 8 -p ack -e 60 -c 2 -a 0 -i 35 -k RTR 
- -t 1.065577634 -s 11 -d 8 -p ack -e 60 -c 2 -a 0 -i 35 -k RTR
h -t 1.065577634 -s 11 -d 8 -p ack -e 60 -c 2 -a 0 -i 35 -k RTR
r -t 1.075582834 -s 11 -d 11 -p tcp -e 1060 -c 2 -a 0 -i 32 -k AGT
+ -t 1.075582834 -s 11 -d -1 -p ack -e 40 -c 2 -a 0 -i 36 -k AGT 
- -t 1.075582834 -s 11 -d -1 -p ack -e 40 -c 2 -a 0 -i 36 -k AGT
h -t 1.075582834 -s 11 -d -1 -p ack -e 40 -c 2 -a 0 -i 36 -k AGT
+ -t 1.075582834 -s 11 -d 8 -p ack -e 60 -c 2 -a 0 -i 36 -k RTR 
- -t 1.075582834 -s 11 -d 8 -p ack -e 60 -c 2 -a 0 -i 36 -k RTR
h -t 1.075582834 -s 11 -d 8 -p ack -e 60 -c 2 -a 0 -i 36 -k RTR
r -t 1.085628034 -s 11 -d 11 -p tcp -e 1060 -c 2 -a 0 -i 33 -k AGT
+ -t 1.085628034 -s 11 -d -1 -p ack -e 40 -c 2 -a 0 -i 37 -k AGT 
- -t 1.085628034 -s 11 -d -1 -p ack -e 40 -c 2 -a 0 -i 37 -k AGT