s 0.088001372 _3_ RTR  --- 0 message 32 [0 0 0 0] ------- [3:255 -1:255 32 0] 
r 0.089121472 _2_ RTR  --- 0 message 32 [0 ffffffff 3 800] ------- [3:255 -1:255 32 0] 
r 0.089121472 _7_ RTR  --- 0 message 32 [0 ffffffff 3 800] ------- [3:255 -1:255 32 0] 
r 0.089121513 _6_ RTR  --- 0 message 32 [0 ffffffff 3 800] ------- [3:255 -1:255 32 0] 
r 0.089121572 _1_ RTR  --- 0 message 32 [0 ffffffff 3 800] ------- [3:255 -1:255 32 0] 
r 0.089121572 _11_ RTR  --- 0 message 32 [0 ffffffff 3 800] ------- [3:255 -1:255 32 0] 
r 0.089121595 _5_ RTR  --- 0 message 32 [0 ffffffff 3 800] ------- [3:255 -1:255 32 0] 
r 0.089121595 _10_ RTR  --- 0 message 32 [0 ffffffff 3 800] ------- [3:255 -1:255 32 0] 
r 0.089121655 _9_ RTR  --- 0 message 32 [0 ffffffff 3 800] ------- [3:255 -1:255 32 0] 
r 0.089121672 _0_ RTR  --- 0 message 32 [0 ffffffff 3 800] ------- [3:255 -1:255 32 0] 
r 0.089121672 _15_ RTR  --- 0 message 32 [0 ffffffff 3 800] ------- [3:255 -1:255 32 0] 
r 0.089121688 _4_ RTR  --- 0 message 32 [0 ffffffff 3 800] ------- [3:255 -1:255 32 0] 
r 0.089121688 _14_ RTR  --- 0 message 32 [0 ffffffff 3 800] ------- [3:255 -1:255 32 0] 
r 0.089121732 _8_ RTR  --- 0 message 32 [0 ffffffff 3 800] ------- [3:255 -1:255 32 0] 
r 0.089121732 _13_ RTR  --- 0 message 32 [0 ffffffff 3 800] ------- [3:255 -1:255 32 0] 
r 0.089121772 _19_ RTR  --- 0 message 32 [0 ffffffff 3 800] ------- [3:255 -1:255 32 0] 
r 0.089121784 _18_ RTR  --- 0 message 32 [0 ffffffff 3 800] ------- [3:255 -1:255 32 0] 
r 0.089121796 _12_ RTR  --- 0 message 32 [0 ffffffff 3 800] ------- [3:255 -1:255 32 0] 
r 0.089121819 _17_ RTR  --- 0 message 32 [0 ffffffff 3 800] ------- [3:255 -1:255 32 0] 
r 0.089121872 _16_ RTR  --- 0 message 32 [0 ffffffff 3 800] ------- [3:255 -1:255 32 0] 
s 0.197327164 _9_ RTR  --- 1 message 32 [0 0 0 0] ------- [9:255 -1:255 32 0] 
r 0.198427264 _8_ RTR  --- 1 message 32 [0 ffffffff 9 800] ------- [9:255 -1:255 32 0] 
r 0.198427264 _5_ RTR  --- 1 message 32 [0 ffffffff 9 800] ------- [9:255 -1:255 32 0] 
r 0.198427264 _10_ RTR  --- 1 message 32 [0 ffffffff 9 800] ------- [9:255 -1:255 32 0] 
r 0.198427264 _13_ RTR  --- 1 message 32 [0 ffffffff 9 800] ------- [9:255 -1:255 32 0] 
r 0.198427305 _6_ RTR  --- 1 message 32 [0 ffffffff 9 800] ------- [9:255 -1:255 32 0] 
r 0.198427305 _4_ RTR  --- 1 message 32 [0 ffffffff 9 800] ------- [9:255 -1:255 32 0] 
r 0.198427305 _12_ RTR  --- 1 message 32 [0 ffffffff 9 800] ------- [9:255 -1:255 32 0] 
r 0.198427305 _14_ RTR  --- 1 message 32 [0 ffffffff 9 800] ------- [9:255 -1:255 32 0] 
r 0.198427364 _1_ RTR  --- 1 message 32 [0 ffffffff 9 800] ------- [9:255 -1:255 32 0] 
r 0.198427364 _11_ RTR  --- 1 message 32 [0 ffffffff 9 800] ------- [9:255 -1:255 32 0] 
r 0.198427364 _17_ RTR  --- 1 message 32 [0 ffffffff 9 800] ------- [9:255 -1:255 32 0] 
r 0.198427387 _7_ RTR  --- 1 message 32 [0 ffffffff 9 800] ------- [9:255 -1:255 32 0] 
r 0.198427387 _2_ RTR  --- 1 message 32 [0 ffffffff 9 800] ------- [9:255 -1:255 32 0] 
r 0.198427387 _0_ RTR  --- 1 message 32 [0 ffffffff 9 800] ------- [9:255 -1:255 32 0] 
r 0.198427387 _15_ RTR  --- 1 message 32 [0 ffffffff 9 800] ------- [9:255 -1:255 32 0] 
r 0.198427387 _16_ RTR  --- 1 message 32 [0 ffffffff 9 800] ------- [9:255 -1:255 32 0] 
r 0.198427387 _18_ RTR  --- 1 message 32 [0 ffffffff 9 800] ------- [9:255 -1:255 32 0] 
r 0.198427447 _3_ RTR  --- 1 message 32 [0 ffffffff 9 800] ------- [9:255 -1:255 32 0] 
r 0.198427447 _19_ RTR  --- 1 message 32 [0 ffffffff 9 800] ------- [9:255 -1:255 32 0] 
s 0.229490150 _5_ RTR  --- 2 message 32 [0 0 0 0] ------- [5:255 -1:255 32 0] 
r 0.230530250 _4_ RTR  --- 2 message 32 [0 ffffffff 5 800] ------- [5:255 -1:255 32 0] 
r 0.230530250 _1_ RTR  --- 2 message 32 [0 ffffffff 5 800] ------- [5:255 -1:255 32 0] 
r 0.230530250 _6_ RTR  --- 2 message 32 [0 ffffffff 5 800] ------- [5:255 -1:255 32 0] 
r 0.230530250 _9_ RTR  --- 2 message 32 [0 ffffffff 5 800] ------- [5:255 -1:255 32 0] 
r 0.230530291 _2_ RTR  --- 2 message 32 [0 ffffffff 5 800] ------- [5:255 -1:255 32 0] 
r 0.230530291 _0_ RTR  --- 2 message 32 [0 ffffffff 5 800] ------- [5:255 -1:255 32 0] 
r 0.230530291 _8_ RTR  --- 2 message 32 [0 ffffffff 5 800] ------- [5:255 -1:255 32 0] 
r 0.230530291 _10_ RTR  --- 2 message 32 [0 ffffffff 5 800] ------- [5:255 -1:255 32 0] 
r 0.230530350 _7_ RTR  --- 2 message 32 [0 ffffffff 5 800] ------- [5:255 -1:255 32 0] 
r 0.230530350 _13_ RTR  --- 2 message 32 [0 ffffffff 5 800] ------- [5:255 -1:255 32 0] 
r 0.230530373 _3_ RTR  --- 2 message 32 [0 ffffffff 5 800] ------- [5:255 -1:255 32 0] 
r 0.230530373 _11_ RTR  --- 2 message 32 [0 ffffffff 5 800] ------- [5:255 -1:255 32 0] 
r 0.230530373 _12_ RTR  --- 2 message 32 [0 ffffffff 5 800] ------- [5:255 -1:255 32 0] 
r 0.230530373 _14_ RTR  --- 2 message 32 [0 ffffffff 5 800] ------- [5:255 -1:255 32 0] 
r 0.230530432 _15_ RTR  --- 2 message 32 [0 ffffffff 5 800] ------- [5:255 -1:255 32 0] 
r 0.230530450 _17_ RTR  --- 2 message 32 [0 ffffffff 5 800] ------- [5:255 -1:255 32 0] 
r 0.230530466 _16_ RTR  --- 2 message 32 [0 ffffffff 5 800] ------- [5:255 -1:255 32 0] 
r 0.230530466 _18_ RTR  --- 2 message 32 [0 ffffffff 5 800] ------- [5:255 -1:255 32 0] 
r 0.230530510 _19_ RTR  --- 2 message 32 [0 ffffffff 5 800] ------- [5:255 -1:255 32 0] 
s 0.329411126 _2_ RTR  --- 3 message 32 [0 0 0 0] ------- [2:255 -1:255 32 0] 
r 0.330351226 _1_ RTR  --- 3 message 32 [0 ffffffff 2 800] ------- [2:255 -1:255 32 0] 
r 0.330351226 _3_ RTR  --- 3 message 32 [0 ffffffff 2 800] ------- [2:255 -1:255 32 0] 
r 0.330351226 _6_ RTR  --- 3 message 32 [0 ffffffff 2 800] ------- [2:255 -1:255 32 0] 
r 0.330351268 _5_ RTR  --- 3 message 32 [0 ffffffff 2 800] ------- [2:255 -1:255 32 0] 
r 0.330351268 _7_ RTR  --- 3 message 32 [0 ffffffff 2 800] ------- [2:255 -1:255 32 0] 
r 0.330351326 _0_ RTR  --- 3 message 32 [0 ffffffff 2 800] ------- [2:255 -1:255 32 0] 
r 0.330351326 _10_ RTR  --- 3 message 32 [0 ffffffff 2 800] ------- [2:255 -1:255 32 0] 
r 0.330351350 _4_ RTR  --- 3 message 32 [0 ffffffff 2 800] ------- [2:255 -1:255 32 0] 
r 0.330351350 _9_ RTR  --- 3 message 32 [0 ffffffff 2 800] ------- [2:255 -1:255 32 0] 
r 0.330351350 _11_ RTR  --- 3 message 32 [0 ffffffff 2 800] ------- [2:255 -1:255 32 0] 
r 0.330351409 _8_ RTR  --- 3 message 32 [0 ffffffff 2 800] ------- [2:255 -1:255 32 0] 
r 0.330351426 _14_ RTR  --- 3 message 32 [0 ffffffff 2 800] ------- [2:255 -1:255 32 0] 
r 0.330351443 _13_ RTR  --- 3 message 32 [0 ffffffff 2 800] ------- [2:255 -1:255 32 0] 
r 0.330351443 _15_ RTR  --- 3 message 32 [0 ffffffff 2 800] ------- [2:255 -1:255 32 0] 
r 0.330351487 _12_ RTR  --- 3 message 32 [0 ffffffff 2 800] ------- [2:255 -1:255 32 0] 
r 0.330351526 _18_ RTR  --- 3 message 32 [0 ffffffff 2 800] ------- [2:255 -1:255 32 0] 
r 0.330351539 _17_ RTR  --- 3 message 32 [0 ffffffff 2 800] ------- [2:255 -1:255 32 0] 
r 0.330351539 _19_ RTR  --- 3 message 32 [0 ffffffff 2 800] ------- [2:255 -1:255 32 0] 
r 0.330351574 _16_ RTR  --- 3 message 32 [0 ffffffff 2 800] ------- [2:255 -1:255 32 0] 
s 0.352967135 _8_ RTR  --- 4 message 32 [0 0 0 0] ------- [8:255 -1:255 32 0] 
r 0.353967235 _4_ RTR  --- 4 message 32 [0 ffffffff 8 800] ------- [8:255 -1:255 32 0] 
r 0.353967235 _9_ RTR  --- 4 message 32 [0 ffffffff 8 800] ------- [8:255 -1:255 32 0] 
r 0.353967235 _12_ RTR  --- 4 message 32 [0 ffffffff 8 800] ------- [8:255 -1:255 32 0] 
r 0.353967277 _5_ RTR  --- 4 message 32 [0 ffffffff 8 800] ------- [8:255 -1:255 32 0] 
r 0.353967277 _13_ RTR  --- 4 message 32 [0 ffffffff 8 800] ------- [8:255 -1:255 32 0] 
r 0.353967335 _0_ RTR  --- 4 message 32 [0 ffffffff 8 800] ------- [8:255 -1:255 32 0] 
r 0.353967335 _10_ RTR  --- 4 message 32 [0 ffffffff 8 800] ------- [8:255 -1:255 32 0] 
r 0.353967335 _16_ RTR  --- 4 message 32 [0 ffffffff 8 800] ------- [8:255 -1:255 32 0] 
r 0.353967359 _6_ RTR  --- 4 message 32 [0 ffffffff 8 800] ------- [8:255 -1:255 32 0] 
r 0.353967359 _1_ RTR  --- 4 message 32 [0 ffffffff 8 800] ------- [8:255 -1:255 32 0] 
r 0.353967359 _14_ RTR  --- 4 message 32 [0 ffffffff 8 800] ------- [8:255 -1:255 32 0] 
r 0.353967359 _17_ RTR  --- 4 message 32 [0 ffffffff 8 800] ------- [8:255 -1:255 32 0] 
r 0.353967418 _2_ RTR  --- 4 message 32 [0 ffffffff 8 800] ------- [8:255 -1:255 32 0] 
r 0.353967418 _18_ RTR  --- 4 message 32 [0 ffffffff 8 800] ------- [8:255 -1:255 32 0] 
r 0.353967435 _11_ RTR  --- 4 message 32 [0 ffffffff 8 800] ------- [8:255 -1:255 32 0] 
r 0.353967451 _7_ RTR  --- 4 message 32 [0 ffffffff 8 800] ------- [8:255 -1:255 32 0] 
r 0.353967451 _15_ RTR  --- 4 message 32 [0 ffffffff 8 800] ------- [8:255 -1:255 32 0] 
r 0.353967496 _3_ RTR  --- 4 message 32 [0 ffffffff 8 800] ------- [8:255 -1:255 32 0] 
r 0.353967496 _19_ RTR  --- 4 message 32 [0 ffffffff 8 800] ------- [8:255 -1:255 32 0] 
s 0.441305651 _19_ RTR  --- 5 message 32 [0 0 0 0] ------- [19:255 -1:255 32 0] 
r 0.442345751 _18_ RTR  --- 5 message 32 [0 ffffffff 13 800] ------- [19:255 -1:255 32 0] 
r 0.442345751 _15_ RTR  --- 5 message 32 [0 ffffffff 13 800] ------- [19:255 -1:255 32 0] 
r 0.442345792 _14_ RTR  --- 5 message 32 [0 ffffffff 13 800] ------- [19:255 -1:255 32 0] 
r 0.442345851 _17_ RTR  --- 5 message 32 [0 ffffffff 13 800] ------- [19:255 -1:255 32 0] 
r 0.442345851 _11_ RTR  --- 5 message 32 [0 ffffffff 13 800] ------- [19:255 -1:255 32 0] 
r 0.442345875 _13_ RTR  --- 5 message 32 [0 ffffffff 13 800] ------- [19:255 -1:255 32 0] 
r 0.442345875 _10_ RTR  --- 5 message 32 [0 ffffffff 13 800] ------- [19:255 -1:255 32 0] 
r 0.442345934 _9_ RTR  --- 5 message 32 [0 ffffffff 13 800] ------- [19:255 -1:255 32 0] 
r 0.442345951 _16_ RTR  --- 5 message 32 [0 ffffffff 13 800] ------- [19:255 -1:255 32 0] 
r 0.442345951 _7_ RTR  --- 5 message 32 [0 ffffffff 13 800] ------- [19:255 -1:255 32 0] 
r 0.442345967 _12_ RTR  --- 5 message 32 [0 ffffffff 13 800] ------- [19:255 -1:255 32 0] 
r 0.442345967 _6_ RTR  --- 5 message 32 [0 ffffffff 13 800] ------- [19:255 -1:255 32 0] 
r 0.442346012 _8_ RTR  --- 5 message 32 [0 ffffffff 13 800] ------- [19:255 -1:255 32 0] 
r 0.442346012 _5_ RTR  --- 5 message 32 [0 ffffffff 13 800] ------- [19:255 -1:255 32 0] 
r 0.442346051 _3_ RTR  --- 5 message 32 [0 ffffffff 13 800] ------- [19:255 -1:255 32 0] 
r 0.442346063 _2_ RTR  --- 5 message 32 [0 ffffffff 13 800] ------- [19:255 -1:255 32 0] 
r 0.442346075 _4_ RTR  --- 5 message 32 [0 ffffffff 13 800] ------- [19:255 -1:255 32 0] 
r 0.442346098 _1_ RTR  --- 5 message 32 [0 ffffffff 13 800] ------- [19:255 -1:255 32 0] 
r 0.442346151 _0_ RTR  --- 5 message 32 [0 ffffffff 13 800] ------- [19:255 -1:255 32 0] 
s 0.521724294 _12_ RTR  --- 6 message 32 [0 0 0 0] ------- [12:255 -1:255 32 0] 
r 0.522624394 _8_ RTR  --- 6 message 32 [0 ffffffff c 800] ------- [12:255 -1:255 32 0] 
r 0.522624394 _13_ RTR  --- 6 message 32 [0 ffffffff c 800] ------- [12:255 -1:255 32 0] 
r 0.522624394 _16_ RTR  --- 6 message 32 [0 ffffffff c 800] ------- [12:255 -1:255 32 0] 
r 0.522624436 _9_ RTR  --- 6 message 32 [0 ffffffff c 800] ------- [12:255 -1:255 32 0] 
r 0.522624436 _17_ RTR  --- 6 message 32 [0 ffffffff c 800] ------- [12:255 -1:255 32 0] 
r 0.522624494 _4_ RTR  --- 6 message 32 [0 ffffffff c 800] ------- [12:255 -1:255 32 0] 
r 0.522624494 _14_ RTR  --- 6 message 32 [0 ffffffff c 800] ------- [12:255 -1:255 32 0] 
r 0.522624518 _10_ RTR  --- 6 message 32 [0 ffffffff c 800] ------- [12:255 -1:255 32 0] 
r 0.522624518 _5_ RTR  --- 6 message 32 [0 ffffffff c 800] ------- [12:255 -1:255 32 0] 
r 0.522624518 _18_ RTR  --- 6 message 32 [0 ffffffff c 800] ------- [12:255 -1:255 32 0] 
r 0.522624577 _6_ RTR  --- 6 message 32 [0 ffffffff c 800] ------- [12:255 -1:255 32 0] 
r 0.522624594 _0_ RTR  --- 6 message 32 [0 ffffffff c 800] ------- [12:255 -1:255 32 0] 
r 0.522624594 _15_ RTR  --- 6 message 32 [0 ffffffff c 800] ------- [12:255 -1:255 32 0] 
r 0.522624611 _11_ RTR  --- 6 message 32 [0 ffffffff c 800] ------- [12:255 -1:255 32 0] 
r 0.522624611 _1_ RTR  --- 6 message 32 [0 ffffffff c 800] ------- [12:255 -1:255 32 0] 
r 0.522624611 _19_ RTR  --- 6 message 32 [0 ffffffff c 800] ------- [12:255 -1:255 32 0] 
r 0.522624655 _7_ RTR  --- 6 message 32 [0 ffffffff c 800] ------- [12:255 -1:255 32 0] 
r 0.522624655 _2_ RTR  --- 6 message 32 [0 ffffffff c 800] ------- [12:255 -1:255 32 0] 
r 0.522624719 _3_ RTR  --- 6 message 32 [0 ffffffff c 800] ------- [12:255 -1:255 32 0] 
s 0.620020258 _0_ RTR  --- 7 message 32 [0 0 0 0] ------- [0:255 -1:255 32 0] 
r 0.621140358 _1_ RTR  --- 7 message 32 [0 ffffffff 0 800] ------- [0:255 -1:255 32 0] 
r 0.621140358 _4_ RTR  --- 7 message 32 [0 ffffffff 0 800] ------- [0:255 -1:255 32 0] 
r 0.621140400 _5_ RTR  --- 7 message 32 [0 ffffffff 0 800] ------- [0:255 -1:255 32 0] 
r 0.621140458 _2_ RTR  --- 7 message 32 [0 ffffffff 0 800] ------- [0:255 -1:255 32 0] 
r 0.621140458 _8_ RTR  --- 7 message 32 [0 ffffffff 0 800] ------- [0:255 -1:255 32 0] 
r 0.621140482 _6_ RTR  --- 7 message 32 [0 ffffffff 0 800] ------- [0:255 -1:255 32 0] 
r 0.621140482 _9_ RTR  --- 7 message 32 [0 ffffffff 0 800] ------- [0:255 -1:255 32 0] 
r 0.621140541 _10_ RTR  --- 7 message 32 [0 ffffffff 0 800] ------- [0:255 -1:255 32 0] 
r 0.621140558 _3_ RTR  --- 7 message 32 [0 ffffffff 0 800] ------- [0:255 -1:255 32 0] 
r 0.621140558 _12_ RTR  --- 7 message 32 [0 ffffffff 0 800] ------- [0:255 -1:255 32 0] 
r 0.621140574 _7_ RTR  --- 7 message 32 [0 ffffffff 0 800] ------- [0:255 -1:255 32 0] 
r 0.621140574 _13_ RTR  --- 7 message 32 [0 ffffffff 0 800] ------- [0:255 -1:255 32 0] 
r 0.621140619 _11_ RTR  --- 7 message 32 [0 ffffffff 0 800] ------- [0:255 -1:255 32 0] 
r 0.621140619 _14_ RTR  --- 7 message 32 [0 ffffffff 0 800] ------- [0:255 -1:255 32 0] 
r 0.621140658 _16_ RTR  --- 7 message 32 [0 ffffffff 0 800] ------- [0:255 -1:255 32 0] 
r 0.621140671 _17_ RTR  --- 7 message 32 [0 ffffffff 0 800] ------- [0:255 -1:255 32 0] 
r 0.621140682 _15_ RTR  --- 7 message 32 [0 ffffffff 0 800] ------- [0:255 -1:255 32 0] 
r 0.621140705 _18_ RTR  --- 7 message 32 [0 ffffffff 0 800] ------- [0:255 -1:255 32 0] 
r 0.621140758 _19_ RTR  --- 7 message 32 [0 ffffffff 0 800] ------- [0:255 -1:255 32 0] 
s 0.699549391 _11_ RTR  --- 8 message 32 [0 0 0 0] ------- [11:255 -1:255 32 0] 
r 0.700609491 _10_ RTR  --- 8 message 32 [0 ffffffff b 800] ------- [11:255 -1:255 32 0] 
r 0.700609491 _7_ RTR  --- 8 message 32 [0 ffffffff b 800] ------- [11:255 -1:255 32 0] 
r 0.700609491 _15_ RTR  --- 8 message 32 [0 ffffffff b 800] ------- [11:255 -1:255 32 0] 
r 0.700609533 _6_ RTR  --- 8 message 32 [0 ffffffff b 800] ------- [11:255 -1:255 32 0] 
r 0.700609533 _14_ RTR  --- 8 message 32 [0 ffffffff b 800] ------- [11:255 -1:255 32 0] 
r 0.700609591 _9_ RTR  --- 8 message 32 [0 ffffffff b 800] ------- [11:255 -1:255 32 0] 
r 0.700609591 _3_ RTR  --- 8 message 32 [0 ffffffff b 800] ------- [11:255 -1:255 32 0] 
r 0.700609591 _19_ RTR  --- 8 message 32 [0 ffffffff b 800] ------- [11:255 -1:255 32 0] 
r 0.700609615 _5_ RTR  --- 8 message 32 [0 ffffffff b 800] ------- [11:255 -1:255 32 0] 
r 0.700609615 _2_ RTR  --- 8 message 32 [0 ffffffff b 800] ------- [11:255 -1:255 32 0] 
r 0.700609615 _13_ RTR  --- 8 message 32 [0 ffffffff b 800] ------- [11:255 -1:255 32 0] 
r 0.700609615 _18_ RTR  --- 8 message 32 [0 ffffffff b 800] ------- [11:255 -1:255 32 0] 
r 0.700609674 _1_ RTR  --- 8 message 32 [0 ffffffff b 800] ------- [11:255 -1:255 32 0] 
r 0.700609674 _17_ RTR  --- 8 message 32 [0 ffffffff b 800] ------- [11:255 -1:255 32 0] 
r 0.700609691 _8_ RTR  --- 8 message 32 [0 ffffffff b 800] ------- [11:255 -1:255 32 0] 
r 0.700609708 _4_ RTR  --- 8 message 32 [0 ffffffff b 800] ------- [11:255 -1:255 32 0] 
r 0.700609708 _12_ RTR  --- 8 message 32 [0 ffffffff b 800] ------- [11:255 -1:255 32 0] 
r 0.700609752 _0_ RTR  --- 8 message 32 [0 ffffffff b 800] ------- [11:255 -1:255 32 0] 
r 0.700609752 _16_ RTR  --- 8 message 32 [0 ffffffff b 800] ------- [11:255 -1:255 32 0] 
s 0.818284921 _13_ RTR  --- 9 message 32 [0 0 0 0] ------- [13:255 -1:255 32 0] 
r 0.819565021 _12_ RTR  --- 9 message 32 [0 ffffffff d 800] ------- [13:255 -1:255 32 0] 
r 0.819565021 _9_ RTR  --- 9 message 32 [0 ffffffff d 800] ------- [13:255 -1:255 32 0] 
r 0.819565021 _14_ RTR  --- 9 message 32 [0 ffffffff d 800] ------- [13:255 -1:255 32 0] 
r 0.819565021 _17_ RTR  --- 9 message 32 [0 ffffffff d 800] ------- [13:255 -1:255 32 0] 
r 0.819565063 _10_ RTR  --- 9 message 32 [0 ffffffff d 800] ------- [13:255 -1:255 32 0] 
r 0.819565063 _8_ RTR  --- 9 message 32 [0 ffffffff d 800] ------- [13:255 -1:255 32 0] 
r 0.819565063 _16_ RTR  --- 9 message 32 [0 ffffffff d 800] ------- [13:255 -1:255 32 0] 
r 0.819565063 _18_ RTR  --- 9 message 32 [0 ffffffff d 800] ------- [13:255 -1:255 32 0] 
r 0.819565121 _5_ RTR  --- 9 message 32 [0 ffffffff d 800] ------- [13:255 -1:255 32 0] 
r 0.819565121 _15_ RTR  --- 9 message 32 [0 ffffffff d 800] ------- [13:255 -1:255 32 0] 
r 0.819565145 _11_ RTR  --- 9 message 32 [0 ffffffff d 800] ------- [13:255 -1:255 32 0] 
r 0.819565145 _6_ RTR  --- 9 message 32 [0 ffffffff d 800] ------- [13:255 -1:255 32 0] 
r 0.819565145 _4_ RTR  --- 9 message 32 [0 ffffffff d 800] ------- [13:255 -1:255 32 0] 
r 0.819565145 _19_ RTR  --- 9 message 32 [0 ffffffff d 800] ------- [13:255 -1:255 32 0] 
r 0.819565204 _7_ RTR  --- 9 message 32 [0 ffffffff d 800] ------- [13:255 -1:255 32 0] 
r 0.819565221 _1_ RTR  --- 9 message 32 [0 ffffffff d 800] ------- [13:255 -1:255 32 0] 
r 0.819565238 _2_ RTR  --- 9 message 32 [0 ffffffff d 800] ------- [13:255 -1:255 32 0] 
r 0.819565238 _0_ RTR  --- 9 message 32 [0 ffffffff d 800] ------- [13:255 -1:255 32 0] 
r 0.819565282 _3_ RTR  --- 9 message 32 [0 ffffffff d 800] ------- [13:255 -1:255 32 0] 
s 0.852642458 _7_ RTR  --- 10 message 32 [0 0 0 0] ------- [7:255 -1:255 32 0] 
r 0.853542558 _6_ RTR  --- 10 message 32 [0 ffffffff 7 800] ------- [7:255 -1:255 32 0] 
r 0.853542558 _3_ RTR  --- 10 message 32 [0 ffffffff 7 800] ------- [7:255 -1:255 32 0] 
r 0.853542558 _11_ RTR  --- 10 message 32 [0 ffffffff 7 800] ------- [7:255 -1:255 32 0] 
r 0.853542600 _2_ RTR  --- 10 message 32 [0 ffffffff 7 800] ------- [7:255 -1:255 32 0] 
r 0.853542600 _10_ RTR  --- 10 message 32 [0 ffffffff 7 800] ------- [7:255 -1:255 32 0] 
r 0.853542658 _5_ RTR  --- 10 message 32 [0 ffffffff 7 800] ------- [7:255 -1:255 32 0] 
r 0.853542658 _15_ RTR  --- 10 message 32 [0 ffffffff 7 800] ------- [7:255 -1:255 32 0] 
r 0.853542682 _1_ RTR  --- 10 message 32 [0 ffffffff 7 800] ------- [7:255 -1:255 32 0] 
r 0.853542682 _9_ RTR  --- 10 message 32 [0 ffffffff 7 800] ------- [7:255 -1:255 32 0] 
r 0.853542682 _14_ RTR  --- 10 message 32 [0 ffffffff 7 800] ------- [7:255 -1:255 32 0] 
r 0.853542741 _13_ RTR  --- 10 message 32 [0 ffffffff 7 800] ------- [7:255 -1:255 32 0] 
r 0.853542758 _4_ RTR  --- 10 message 32 [0 ffffffff 7 800] ------- [7:255 -1:255 32 0] 
r 0.853542758 _19_ RTR  --- 10 message 32 [0 ffffffff 7 800] ------- [7:255 -1:255 32 0] 
r 0.853542774 _0_ RTR  --- 10 message 32 [0 ffffffff 7 800] ------- [7:255 -1:255 32 0] 
r 0.853542774 _8_ RTR  --- 10 message 32 [0 ffffffff 7 800] ------- [7:255 -1:255 32 0] 
r 0.853542774 _18_ RTR  --- 10 message 32 [0 ffffffff 7 800] ------- [7:255 -1:255 32 0] 
r 0.853542819 _12_ RTR  --- 10 message 32 [0 ffffffff 7 800] ------- [7:255 -1:255 32 0] 
r 0.853542819 _17_ RTR  --- 10 message 32 [0 ffffffff 7 800] ------- [7:255 -1:255 32 0] 
r 0.853542882 _16_ RTR  --- 10 message 32 [0 ffffffff 7 800] ------- [7:255 -1:255 32 0] 
s 0.940375874 _15_ RTR  --- 11 message 32 [0 0 0 0] ------- [15:255 -1:255 32 0] 
r 0.941535974 _14_ RTR  --- 11 message 32 [0 ffffffff f 800] ------- [15:255 -1:255 32 0] 
r 0.941535974 _11_ RTR  --- 11 message 32 [0 ffffffff f 800] ------- [15:255 -1:255 32 0] 
r 0.941535974 _19_ RTR  --- 11 message 32 [0 ffffffff f 800] ------- [15:255 -1:255 32 0] 
r 0.941536016 _10_ RTR  --- 11 message 32 [0 ffffffff f 800] ------- [15:255 -1:255 32 0] 
r 0.941536016 _18_ RTR  --- 11 message 32 [0 ffffffff f 800] ------- [15:255 -1:255 32 0] 
r 0.941536074 _13_ RTR  --- 11 message 32 [0 ffffffff f 800] ------- [15:255 -1:255 32 0] 
r 0.941536074 _7_ RTR  --- 11 message 32 [0 ffffffff f 800] ------- [15:255 -1:255 32 0] 
r 0.941536098 _9_ RTR  --- 11 message 32 [0 ffffffff f 800] ------- [15:255 -1:255 32 0] 
r 0.941536098 _6_ RTR  --- 11 message 32 [0 ffffffff f 800] ------- [15:255 -1:255 32 0] 
r 0.941536098 _17_ RTR  --- 11 message 32 [0 ffffffff f 800] ------- [15:255 -1:255 32 0] 
r 0.941536157 _5_ RTR  --- 11 message 32 [0 ffffffff f 800] ------- [15:255 -1:255 32 0] 
r 0.941536174 _12_ RTR  --- 11 message 32 [0 ffffffff f 800] ------- [15:255 -1:255 32 0] 
r 0.941536174 _3_ RTR  --- 11 message 32 [0 ffffffff f 800] ------- [15:255 -1:255 32 0] 
r 0.941536191 _8_ RTR  --- 11 message 32 [0 ffffffff f 800] ------- [15:255 -1:255 32 0] 
r 0.941536191 _2_ RTR  --- 11 message 32 [0 ffffffff f 800] ------- [15:255 -1:255 32 0] 
r 0.941536191 _16_ RTR  --- 11 message 32 [0 ffffffff f 800] ------- [15:255 -1:255 32 0] 
r 0.941536235 _4_ RTR  --- 11 message 32 [0 ffffffff f 800] ------- [15:255 -1:255 32 0] 
r 0.941536235 _1_ RTR  --- 11 message 32 [0 ffffffff f 800] ------- [15:255 -1:255 32 0] 
r 0.941536299 _0_ RTR  --- 11 message 32 [0 ffffffff f 800] ------- [15:255 -1:255 32 0] 
s 1.000000000 _0_ AGT  --- 12 tcp 40 [0 0 0 0] ------- [0:0 19:0 32 0] [0 0] 0 0
r 1.000000000 _0_ RTR  --- 12 tcp 40 [0 0 0 0] ------- [0:0 19:0 32 0] [0 0] 0 0
s 1.000000000 _0_ RTR  --- 12 tcp 60 [0 0 0 0] ------- [0:0 19:0 32 19] [0 0] 0 0
s 1.000000000 _1_ AGT  --- 13 tcp 40 [0 0 0 0] ------- [1:0 18:0 32 0] [0 0] 0 0
r 1.000000000 _1_ RTR  --- 13 tcp 40 [0 0 0 0] ------- [1:0 18:0 32 0] [0 0] 0 0
s 1.000000000 _2_ AGT  --- 14 tcp 40 [0 0 0 0] ------- [2:0 17:0 32 0] [0 0] 0 0
r 1.000000000 _2_ RTR  --- 14 tcp 40 [0 0 0 0] ------- [2:0 17:0 32 0] [0 0] 0 0
s 1.000000000 _3_ AGT  --- 15 tcp 40 [0 0 0 0] ------- [3:0 16:0 32 0] [0 0] 0 0
r 1.000000000 _3_ RTR  --- 15 tcp 40 [0 0 0 0] ------- [3:0 16:0 32 0] [0 0] 0 0
s 1.000000000 _4_ AGT  --- 16 tcp 40 [0 0 0 0] ------- [4:0 15:0 32 0] [0 0] 0 0
r 1.000000000 _4_ RTR  --- 16 tcp 40 [0 0 0 0] ------- [4:0 15:0 32 0] [0 0] 0 0
s 1.000000000 _4_ RTR  --- 16 tcp 60 [0 0 0 0] ------- [4:0 15:0 32 15] [0 0] 0 0
s 1.000000000 _5_ AGT  --- 17 tcp 40 [0 0 0 0] ------- [5:0 14:0 32 0] [0 0] 0 0
r 1.000000000 _5_ RTR  --- 17 tcp 40 [0 0 0 0] ------- [5:0 14:0 32 0] [0 0] 0 0
s 1.000000000 _6_ AGT  --- 18 tcp 40 [0 0 0 0] ------- [6:0 13:0 32 0] [0 0] 0 0
r 1.000000000 _6_ RTR  --- 18 tcp 40 [0 0 0 0] ------- [6:0 13:0 32 0] [0 0] 0 0
s 1.000000000 _6_ RTR  --- 18 tcp 60 [0 0 0 0] ------- [6:0 13:0 32 13] [0 0] 0 0
s 1.000000000 _7_ AGT  --- 19 tcp 40 [0 0 0 0] ------- [7:0 12:0 32 0] [0 0] 0 0
r 1.000000000 _7_ RTR  --- 19 tcp 40 [0 0 0 0] ------- [7:0 12:0 32 0] [0 0] 0 0
s 1.000000000 _7_ RTR  --- 19 tcp 60 [0 0 0 0] ------- [7:0 12:0 32 12] [0 0] 0 0
s 1.000000000 _8_ AGT  --- 20 tcp 40 [0 0 0 0] ------- [8:0 11:0 32 0] [0 0] 0 0
r 1.000000000 _8_ RTR  --- 20 tcp 40 [0 0 0 0] ------- [8:0 11:0 32 0] [0 0] 0 0
s 1.000000000 _8_ RTR  --- 20 tcp 60 [0 0 0 0] ------- [8:0 11:0 32 11] [0 0] 0 0
s 1.000000000 _9_ AGT  --- 21 tcp 40 [0 0 0 0] ------- [9:0 10:0 32 0] [0 0] 0 0
r 1.000000000 _9_ RTR  --- 21 tcp 40 [0 0 0 0] ------- [9:0 10:0 32 0] [0 0] 0 0
r 1.007587103 _15_ AGT  --- 16 tcp 60 [13a f 4 800] ------- [4:0 15:0 32 15] [0 0] 1 0
s 1.007587103 _15_ AGT  --- 22 ack 40 [0 0 0 0] ------- [15:0 4:0 32 0] [0 0] 0 0
r 1.007587103 _15_ RTR  --- 22 ack 40 [0 0 0 0] ------- [15:0 4:0 32 0] [0 0] 0 0
r 1.013529915 _11_ AGT  --- 20 tcp 60 [13a b 8 800] ------- [8:0 11:0 32 11] [0 0] 1 0
s 1.013529915 _11_ AGT  --- 23 ack 40 [0 0 0 0] ------- [11:0 8:0 32 0] [0 0] 0 0
r 1.013529915 _11_ RTR  --- 23 ack 40 [0 0 0 0] ------- [11:0 8:0 32 0] [0 0] 0 0
s 1.013529915 _11_ RTR  --- 23 ack 60 [0 0 0 0] ------- [11:0 8:0 32 8] [0 0] 0 0
r 1.015574815 _8_ AGT  --- 23 ack 60 [13a 8 b 800] ------- [11:0 8:0 32 8] [0 0] 1 0
s 1.015574815 _8_ AGT  --- 24 tcp 1040 [0 0 0 0] ------- [8:0 11:0 32 0] [1 0] 0 0
r 1.015574815 _8_ RTR  --- 24 tcp 1040 [0 0 0 0] ------- [8:0 11:0 32 0] [1 0] 0 0
s 1.015574815 _8_ RTR  --- 24 tcp 1060 [0 0 0 0] ------- [8:0 11:0 32 11] [1 0] 0 0
s 1.015574815 _8_ AGT  --- 25 tcp 1040 [0 0 0 0] ------- [8:0 11:0 32 0] [2 0] 0 0
r 1.015574815 _8_ RTR  --- 25 tcp 1040 [0 0 0 0] ------- [8:0 11:0 32 0] [2 0] 0 0
s 1.015574815 _8_ RTR  --- 25 tcp 1060 [0 0 0 0] ------- [8:0 11:0 32 11] [2 0] 0 0
r 1.017599710 _13_ AGT  --- 18 tcp 60 [13a d 6 800] ------- [6:0 13:0 32 13] [0 0] 1 0
s 1.017599710 _13_ AGT  --- 26 ack 40 [0 0 0 0] ------- [13:0 6:0 32 0] [0 0] 0 0
r 1.017599710 _13_ RTR  --- 26 ack 40 [0 0 0 0] ------- [13:0 6:0 32 0] [0 0] 0 0
r 1.027724751 _11_ AGT  --- 24 tcp 1060 [13a b 8 800] ------- [8:0 11:0 32 11] [1 0] 1 0
s 1.027724751 _11_ AGT  --- 27 ack 40 [0 0 0 0] ------- [11:0 8:0 32 0] [1 0] 0 0
r 1.027724751 _11_ RTR  --- 27 ack 40 [0 0 0 0] ------- [11:0 8:0 32 0] [1 0] 0 0
s 1.027724751 _11_ RTR  --- 27 ack 60 [0 0 0 0] ------- [11:0 8:0 32 8] [1 0] 0 0
r 1.038029951 _11_ AGT  --- 25 tcp 1060 [13a b 8 800] ------- [8:0 11:0 32 11] [2 0] 1 0
s 1.038029951 _11_ AGT  --- 29 ack 40 [0 0 0 0] ------- [11:0 8:0 32 0] [2 0] 0 0
r 1.038029951 _11_ RTR  --- 29 ack 40 [0 0 0 0] ------- [11:0 8:0 32 0] [2 0] 0 0
s 1.038029951 _11_ RTR  --- 29 ack 60 [0 0 0 0] ------- [11:0 8:0 32 8] [2 0] 0 0
s 1.039009780 _14_ RTR  --- 28 message 32 [0 0 0 0] ------- [14:255 -1:255 32 0] 
r 1.040054851 _8_ AGT  --- 27 ack 60 [13a 8 b 800] ------- [11:0 8:0 32 8] [1 0] 1 0
s 1.040054851 _8_ AGT  --- 30 tcp 1040 [0 0 0 0] ------- [8:0 11:0 32 0] [3 0] 0 0
r 1.040054851 _8_ RTR  --- 30 tcp 1040 [0 0 0 0] ------- [8:0 11:0 32 0] [3 0] 0 0
s 1.040054851 _8_ RTR  --- 30 tcp 1060 [0 0 0 0] ------- [8:0 11:0 32 11] [3 0] 0 0
s 1.040054851 _8_ AGT  --- 31 tcp 1040 [0 0 0 0] ------- [8:0 11:0 32 0] [4 0] 0 0
r 1.040054851 _8_ RTR  --- 31 tcp 1040 [0 0 0 0] ------- [8:0 11:0 32 0] [4 0] 0 0
s 1.040054851 _8_ RTR  --- 31 tcp 1060 [0 0 0 0] ------- [8:0 11:0 32 11] [4 0] 0 0
r 1.042060051 _8_ AGT  --- 29 ack 60 [13a 8 b 800] ------- [11:0 8:0 32 8] [2 0] 1 0
s 1.042060051 _8_ AGT  --- 32 tcp 1040 [0 0 0 0] ------- [8:0 11:0 32 0] [5 0] 0 0
r 1.042060051 _8_ RTR  --- 32 tcp 1040 [0 0 0 0] ------- [8:0 11:0 32 0] [5 0] 0 0
s 1.042060051 _8_ RTR  --- 32 tcp 1060 [0 0 0 0] ------- [8:0 11:0 32 11] [5 0] 0 0
s 1.042060051 _8_ AGT  --- 33 tcp 1040 [0 0 0 0] ------- [8:0 11:0 32 0] [6 0] 0 0
r 1.042060051 _8_ RTR  --- 33 tcp 1040 [0 0 0 0] ------- [8:0 11:0 32 0] [6 0] 0 0
s 1.042060051 _8_ RTR  --- 33 tcp 1060 [0 0 0 0] ------- [8:0 11:0 32 11] [6 0] 0 0
r 1.043284375 _13_ RTR  --- 28 message 32 [0 ffffffff e 800] ------- [14:255 -1:255 32 0] 
r 1.043284375 _10_ RTR  --- 28 message 32 [0 ffffffff e 800] ------- [14:255 -1:255 32 0] 
r 1.043284375 _15_ RTR  --- 28 message 32 [0 ffffffff e 800] ------- [14:255 -1:255 32 0] 
r 1.043284375 _18_ RTR  --- 28 message 32 [0 ffffffff e 800] ------- [14:255 -1:255 32 0] 
r 1.043284416 _11_ RTR  --- 28 message 32 [0 ffffffff e 800] ------- [14:255 -1:255 32 0] 
r 1.043284416 _9_ RTR  --- 28 message 32 [0 ffffffff e 800] ------- [14:255 -1:255 32 0] 
r 1.043284416 _17_ RTR  --- 28 message 32 [0 ffffffff e 800] ------- [14:255 -1:255 32 0] 
r 1.043284416 _19_ RTR  --- 28 message 32 [0 ffffffff e 800] ------- [14:255 -1:255 32 0] 
r 1.043284475 _12_ RTR  --- 28 message 32 [0 ffffffff e 800] ------- [14:255 -1:255 32 0] 
r 1.043284475 _6_ RTR  --- 28 message 32 [0 ffffffff e 800] ------- [14:255 -1:255 32 0] 
r 1.043284498 _8_ RTR  --- 28 message 32 [0 ffffffff e 800] ------- [14:255 -1:255 32 0] 
r 1.043284498 _7_ RTR  --- 28 message 32 [0 ffffffff e 800] ------- [14:255 -1:255 32 0] 
r 1.043284498 _5_ RTR  --- 28 message 32 [0 ffffffff e 800] ------- [14:255 -1:255 32 0] 
s 1.043284498 _5_ RTR  --- 17 tcp 80 [0 0 0 0] ------- [5:0 14:0 32 14] [0 0] 0 0
r 1.043284498 _16_ RTR  --- 28 message 32 [0 ffffffff e 800] ------- [14:255 -1:255 32 0] 
r 1.043284558 _4_ RTR  --- 28 message 32 [0 ffffffff e 800] ------- [14:255 -1:255 32 0] 
r 1.043284575 _2_ RTR  --- 28 message 32 [0 ffffffff e 800] ------- [14:255 -1:255 32 0] 
r 1.043284591 _3_ RTR  --- 28 message 32 [0 ffffffff e 800] ------- [14:255 -1:255 32 0] 
r 1.043284591 _1_ RTR  --- 28 message 32 [0 ffffffff e 800] ------- [14:255 -1:255 32 0] 
r 1.043284635 _0_ RTR  --- 28 message 32 [0 ffffffff e 800] ------- [14:255 -1:255 32 0] 
r 1.055572434 _11_ AGT  --- 30 tcp 1060 [13a b 8 800] ------- [8:0 11:0 32 11] [3 0] 1 0
s 1.055572434 _11_ AGT  --- 34 ack 40 [0 0 0 0] ------- [11:0 8:0 32 0] [3 0] 0 0
r 1.055572434 _11_ RTR  --- 34 ack 40 [0 0 0 0] ------- [11:0 8:0 32 0] [3 0] 0 0
s 1.055572434 _11_ RTR  --- 34 ack 60 [0 0 0 0] ------- [11:0 8:0 32 8] [3 0] 0 0
r 1.065577634 _11_ AGT  --- 31 tcp 1060 [13a b 8 800] ------- [8:0 11:0 32 11] [4 0] 1 0
s 1.065577634 _11_ AGT  --- 35 ack 40 [0 0 0 0] ------- [11:0 8:0 32 0] [4 0] 0 0
r 1.065577634 _11_ RTR  --- 35 ack 40 [0 0 0 0] ------- [11:0 8:0 32 0] [4 0] 0 0
s 1.065577634 _11_ RTR  --- 35 ack 60 [0 0 0 0] ------- [11:0 8:0 32 8] [4 0] 0 0
r 1.075582834 _11_ AGT  --- 32 tcp 1060 [13a b 8 800] ------- [8:0 11:0 32 11] [5 0] 1 0
s 1.075582834 _11_ AGT  --- 36 ack 40 [0 0 0 0] ------- [11:0 8:0 32 0] [5 0] 0 0
r 1.075582834 _11_ RTR  --- 36 ack 40 [0 0 0 0] ------- [11:0 8:0 32 0] [5 0] 0 0
s 1.075582834 _11_ RTR  --- 36 ack 60 [0 0 0 0] ------- [11:0 8:0 32 8] [5 0] 0 0
r 1.085628034 _11_ AGT  --- 33 tcp 1060 [13a b 8 800] ------- [8:0 11:0 32 11] [6 0] 1 0
s 1.085628034 _11_ AGT  --- 37 ack 40 [0 0 0 0] ------- [11:0 8:0 32 0] [6 0] 0 0
r 1.085628034 _11_ RTR  --- 37 ack 40 [0 0 0 0] ------- [11:0 8:0 32 0] [6 0] 0 0
s 1.085628034 _11_ RTR  --- 37 ack 60 [0 0 0 0] ------- [11:0 8:0 32 8] [6 0] 0 0
r 1.087932934 _8_ AGT  --- 34 ack 60 [13a 8 b 800] ------- [11:0 8:0 32 8] [3 0] 1 0
s 1.087932934 _8_ AGT  --- 38 tcp 1040 [0 0 0 0] ------- [8:0 11:0 32 0] [7 0] 0 0