V -t * -v 1.0a5 -a 0
A -t * -n 1 -p 0 -o 0x7fffffff -c 30 -a 1
A -t * -h 1 -m 1073741823 -s 0
c -t * -i 1 -n Blue
c -t * -i 2 -n Red
n -t * -a 35 -s 35 -S UP -v circle -c black -i black
n -t * -a 17 -s 17 -S UP -v circle -c black -i black
n -t * -a 0 -s 0 -S UP -v circle -c black -i black
n -t * -a 36 -s 36 -S UP -v circle -c black -i black
n -t * -a 18 -s 18 -S UP -v circle -c black -i black
n -t * -a 1 -s 1 -S UP -v circle -c black -i black
n -t * -a 37 -s 37 -S UP -v circle -c black -i black
n -t * -a 20 -s 20 -S UP -v circle -c black -i black
n -t * -a 19 -s 19 -S UP -v circle -c black -i black
n -t * -a 2 -s 2 -S UP -v circle -c black -i black
n -t * -a 38 -s 38 -S UP -v circle -c black -i black
n -t * -a 21 -s 21 -S UP -v circle -c black -i black
n -t * -a 3 -s 3 -S UP -v circle -c black -i black
n -t * -a 40 -s 40 -S UP -v circle -c black -i black
n -t * -a 39 -s 39 -S UP -v circle -c black -i black
n -t * -a 22 -s 22 -S UP -v circle -c black -i black
n -t * -a 4 -s 4 -S UP -v circle -c black -i black
n -t * -a 41 -s 41 -S UP -v circle -c black -i black
n -t * -a 23 -s 23 -S UP -v circle -c black -i black
n -t * -a 5 -s 5 -S UP -v circle -c black -i black
n -t * -a 24 -s 24 -S UP -v circle -c black -i black
n -t * -a 6 -s 6 -S UP -v circle -c black -i black
n -t * -a 25 -s 25 -S UP -v circle -c black -i black
n -t * -a 7 -s 7 -S UP -v circle -c black -i black
n -t * -a 26 -s 26 -S UP -v circle -c black -i black
n -t * -a 8 -s 8 -S UP -v circle -c black -i black
n -t * -a 27 -s 27 -S UP -v circle -c black -i black
n -t * -a 9 -s 9 -S UP -v circle -c black -i black
n -t * -a 10 -s 10 -S UP -v circle -c black -i black
n -t * -a 28 -s 28 -S UP -v circle -c black -i black
n -t * -a 11 -s 11 -S UP -v circle -c black -i black
n -t * -a 30 -s 30 -S UP -v circle -c black -i black
n -t * -a 29 -s 29 -S UP -v circle -c black -i black
n -t * -a 12 -s 12 -S UP -v circle -c black -i black
n -t * -a 31 -s 31 -S UP -v circle -c black -i black
n -t * -a 13 -s 13 -S UP -v circle -c black -i black
n -t * -a 32 -s 32 -S UP -v circle -c black -i black
n -t * -a 14 -s 14 -S UP -v circle -c black -i black
n -t * -a 33 -s 33 -S UP -v circle -c black -i black
n -t * -a 15 -s 15 -S UP -v circle -c black -i black
n -t * -a 34 -s 34 -S UP -v circle -c black -i black
n -t * -a 16 -s 16 -S UP -v circle -c black -i black
l -t * -s 0 -d 2 -S UP -r 2000000 -D 0.01 -c black
l -t * -s 0 -d 3 -S UP -r 2000000 -D 0.01 -c black
l -t * -s 0 -d 4 -S UP -r 2000000 -D 0.01 -c black
l -t * -s 0 -d 5 -S UP -r 2000000 -D 0.01 -c black
l -t * -s 0 -d 6 -S UP -r 2000000 -D 0.01 -c black
l -t * -s 0 -d 7 -S UP -r 2000000 -D 0.01 -c black
l -t * -s 0 -d 8 -S UP -r 2000000 -D 0.01 -c black
l -t * -s 0 -d 9 -S UP -r 2000000 -D 0.01 -c black
l -t * -s 0 -d 10 -S UP -r 2000000 -D 0.01 -c black
l -t * -s 0 -d 11 -S UP -r 2000000 -D 0.01 -c black
l -t * -s 0 -d 12 -S UP -r 2000000 -D 0.01 -c black
l -t * -s 0 -d 13 -S UP -r 2000000 -D 0.01 -c black
l -t * -s 0 -d 14 -S UP -r 2000000 -D 0.01 -c black
l -t * -s 0 -d 15 -S UP -r 2000000 -D 0.01 -c black
l -t * -s 0 -d 16 -S UP -r 2000000 -D 0.01 -c black
l -t * -s 0 -d 17 -S UP -r 2000000 -D 0.01 -c black
l -t * -s 0 -d 18 -S UP -r 2000000 -D 0.01 -c black
l -t * -s 0 -d 19 -S UP -r 2000000 -D 0.01 -c black
l -t * -s 0 -d 20 -S UP -r 2000000 -D 0.01 -c black
l -t * -s 0 -d 21 -S UP -r 2000000 -D 0.01 -c black
l -t * -s 1 -d 22 -S UP -r 2000000 -D 0.01 -c black
l -t * -s 1 -d 23 -S UP -r 2000000 -D 0.01 -c black
l -t * -s 1 -d 24 -S UP -r 2000000 -D 0.01 -c black
l -t * -s 1 -d 25 -S UP -r 2000000 -D 0.01 -c black
l -t * -s 1 -d 26 -S UP -r 2000000 -D 0.01 -c black
l -t * -s 1 -d 27 -S UP -r 2000000 -D 0.01 -c black
l -t * -s 1 -d 28 -S UP -r 2000000 -D 0.01 -c black
l -t * -s 1 -d 29 -S UP -r 2000000 -D 0.01 -c black
l -t * -s 1 -d 30 -S UP -r 2000000 -D 0.01 -c black
l -t * -s 1 -d 31 -S UP -r 2000000 -D 0.01 -c black
l -t * -s 1 -d 32 -S UP -r 2000000 -D 0.01 -c black
l -t * -s 1 -d 33 -S UP -r 2000000 -D 0.01 -c black
l -t * -s 1 -d 34 -S UP -r 2000000 -D 0.01 -c black
l -t * -s 1 -d 35 -S UP -r 2000000 -D 0.01 -c black
l -t * -s 1 -d 36 -S UP -r 2000000 -D 0.01 -c black
l -t * -s 1 -d 37 -S UP -r 2000000 -D 0.01 -c black
l -t * -s 1 -d 38 -S UP -r 2000000 -D 0.01 -c black
l -t * -s 1 -d 39 -S UP -r 2000000 -D 0.01 -c black
l -t * -s 1 -d 40 -S UP -r 2000000 -D 0.01 -c black
l -t * -s 1 -d 41 -S UP -r 2000000 -D 0.01 -c black
l -t * -s 0 -d 1 -S UP -r 2000000 -D 0.01 -c black
q -t * -s 0 -d 1 -a 0.5
q -t * -s 1 -d 0 -a 0.5
+ -t 0.1 -s 2 -d 0 -p tcp -e 40 -c 1 -i 0 -a 1 -x {2.0 22.0 0 ------- null}
- -t 0.1 -s 2 -d 0 -p tcp -e 40 -c 1 -i 0 -a 1 -x {2.0 22.0 0 ------- null}
h -t 0.1 -s 2 -d 0 -p tcp -e 40 -c 1 -i 0 -a 1 -x {2.0 22.0 -1 ------- null}
+ -t 0.1 -s 3 -d 0 -p tcp -e 40 -c 1 -i 1 -a 1 -x {3.0 23.0 0 ------- null}
- -t 0.1 -s 3 -d 0 -p tcp -e 40 -c 1 -i 1 -a 1 -x {3.0 23.0 0 ------- null}
h -t 0.1 -s 3 -d 0 -p tcp -e 40 -c 1 -i 1 -a 1 -x {3.0 23.0 -1 ------- null}
+ -t 0.1 -s 4 -d 0 -p tcp -e 40 -c 1 -i 2 -a 1 -x {4.0 24.0 0 ------- null}
- -t 0.1 -s 4 -d 0 -p tcp -e 40 -c 1 -i 2 -a 1 -x {4.0 24.0 0 ------- null}
h -t 0.1 -s 4 -d 0 -p tcp -e 40 -c 1 -i 2 -a 1 -x {4.0 24.0 -1 ------- null}
+ -t 0.1 -s 5 -d 0 -p tcp -e 40 -c 1 -i 3 -a 1 -x {5.0 25.0 0 ------- null}
- -t 0.1 -s 5 -d 0 -p tcp -e 40 -c 1 -i 3 -a 1 -x {5.0 25.0 0 ------- null}
h -t 0.1 -s 5 -d 0 -p tcp -e 40 -c 1 -i 3 -a 1 -x {5.0 25.0 -1 ------- null}
+ -t 0.1 -s 6 -d 0 -p tcp -e 40 -c 1 -i 4 -a 1 -x {6.0 26.0 0 ------- null}
- -t 0.1 -s 6 -d 0 -p tcp -e 40 -c 1 -i 4 -a 1 -x {6.0 26.0 0 ------- null}
h -t 0.1 -s 6 -d 0 -p tcp -e 40 -c 1 -i 4 -a 1 -x {6.0 26.0 -1 ------- null}
+ -t 0.1 -s 7 -d 0 -p tcp -e 40 -c 1 -i 5 -a 1 -x {7.0 27.0 0 ------- null}
- -t 0.1 -s 7 -d 0 -p tcp -e 40 -c 1 -i 5 -a 1 -x {7.0 27.0 0 ------- null}
h -t 0.1 -s 7 -d 0 -p tcp -e 40 -c 1 -i 5 -a 1 -x {7.0 27.0 -1 ------- null}
+ -t 0.1 -s 8 -d 0 -p tcp -e 40 -c 1 -i 6 -a 1 -x {8.0 28.0 0 ------- null}
- -t 0.1 -s 8 -d 0 -p tcp -e 40 -c 1 -i 6 -a 1 -x {8.0 28.0 0 ------- null}
h -t 0.1 -s 8 -d 0 -p tcp -e 40 -c 1 -i 6 -a 1 -x {8.0 28.0 -1 ------- null}
+ -t 0.1 -s 9 -d 0 -p tcp -e 40 -c 1 -i 7 -a 1 -x {9.0 29.0 0 ------- null}
- -t 0.1 -s 9 -d 0 -p tcp -e 40 -c 1 -i 7 -a 1 -x {9.0 29.0 0 ------- null}
h -t 0.1 -s 9 -d 0 -p tcp -e 40 -c 1 -i 7 -a 1 -x {9.0 29.0 -1 ------- null}
+ -t 0.1 -s 10 -d 0 -p tcp -e 40 -c 1 -i 8 -a 1 -x {10.0 30.0 0 ------- null}
- -t 0.1 -s 10 -d 0 -p tcp -e 40 -c 1 -i 8 -a 1 -x {10.0 30.0 0 ------- null}
h -t 0.1 -s 10 -d 0 -p tcp -e 40 -c 1 -i 8 -a 1 -x {10.0 30.0 -1 ------- null}
+ -t 0.1 -s 11 -d 0 -p tcp -e 40 -c 1 -i 9 -a 1 -x {11.0 31.0 0 ------- null}
- -t 0.1 -s 11 -d 0 -p tcp -e 40 -c 1 -i 9 -a 1 -x {11.0 31.0 0 ------- null}
h -t 0.1 -s 11 -d 0 -p tcp -e 40 -c 1 -i 9 -a 1 -x {11.0 31.0 -1 ------- null}
+ -t 0.1 -s 12 -d 0 -p tcp -e 40 -c 1 -i 10 -a 1 -x {12.0 32.0 0 ------- null}
- -t 0.1 -s 12 -d 0 -p tcp -e 40 -c 1 -i 10 -a 1 -x {12.0 32.0 0 ------- null}
h -t 0.1 -s 12 -d 0 -p tcp -e 40 -c 1 -i 10 -a 1 -x {12.0 32.0 -1 ------- null}
+ -t 0.1 -s 13 -d 0 -p tcp -e 40 -c 1 -i 11 -a 1 -x {13.0 33.0 0 ------- null}
- -t 0.1 -s 13 -d 0 -p tcp -e 40 -c 1 -i 11 -a 1 -x {13.0 33.0 0 ------- null}
h -t 0.1 -s 13 -d 0 -p tcp -e 40 -c 1 -i 11 -a 1 -x {13.0 33.0 -1 ------- null}
+ -t 0.1 -s 14 -d 0 -p tcp -e 40 -c 1 -i 12 -a 1 -x {14.0 34.0 0 ------- null}
- -t 0.1 -s 14 -d 0 -p tcp -e 40 -c 1 -i 12 -a 1 -x {14.0 34.0 0 ------- null}
h -t 0.1 -s 14 -d 0 -p tcp -e 40 -c 1 -i 12 -a 1 -x {14.0 34.0 -1 ------- null}
+ -t 0.1 -s 15 -d 0 -p tcp -e 40 -c 1 -i 13 -a 1 -x {15.0 35.0 0 ------- null}
- -t 0.1 -s 15 -d 0 -p tcp -e 40 -c 1 -i 13 -a 1 -x {15.0 35.0 0 ------- null}
h -t 0.1 -s 15 -d 0 -p tcp -e 40 -c 1 -i 13 -a 1 -x {15.0 35.0 -1 ------- null}
+ -t 0.1 -s 16 -d 0 -p tcp -e 40 -c 1 -i 14 -a 1 -x {16.0 36.0 0 ------- null}
- -t 0.1 -s 16 -d 0 -p tcp -e 40 -c 1 -i 14 -a 1 -x {16.0 36.0 0 ------- null}
h -t 0.1 -s 16 -d 0 -p tcp -e 40 -c 1 -i 14 -a 1 -x {16.0 36.0 -1 ------- null}
+ -t 0.1 -s 17 -d 0 -p tcp -e 40 -c 1 -i 15 -a 1 -x {17.0 37.0 0 ------- null}
- -t 0.1 -s 17 -d 0 -p tcp -e 40 -c 1 -i 15 -a 1 -x {17.0 37.0 0 ------- null}
h -t 0.1 -s 17 -d 0 -p tcp -e 40 -c 1 -i 15 -a 1 -x {17.0 37.0 -1 ------- null}
+ -t 0.1 -s 18 -d 0 -p tcp -e 40 -c 1 -i 16 -a 1 -x {18.0 38.0 0 ------- null}
- -t 0.1 -s 18 -d 0 -p tcp -e 40 -c 1 -i 16 -a 1 -x {18.0 38.0 0 ------- null}
h -t 0.1 -s 18 -d 0 -p tcp -e 40 -c 1 -i 16 -a 1 -x {18.0 38.0 -1 ------- null}
+ -t 0.1 -s 19 -d 0 -p tcp -e 40 -c 1 -i 17 -a 1 -x {19.0 39.0 0 ------- null}
- -t 0.1 -s 19 -d 0 -p tcp -e 40 -c 1 -i 17 -a 1 -x {19.0 39.0 0 ------- null}
h -t 0.1 -s 19 -d 0 -p tcp -e 40 -c 1 -i 17 -a 1 -x {19.0 39.0 -1 ------- null}
+ -t 0.1 -s 20 -d 0 -p tcp -e 40 -c 1 -i 18 -a 1 -x {20.0 40.0 0 ------- null}
- -t 0.1 -s 20 -d 0 -p tcp -e 40 -c 1 -i 18 -a 1 -x {20.0 40.0 0 ------- null}
h -t 0.1 -s 20 -d 0 -p tcp -e 40 -c 1 -i 18 -a 1 -x {20.0 40.0 -1 ------- null}
+ -t 0.1 -s 21 -d 0 -p tcp -e 40 -c 1 -i 19 -a 1 -x {21.0 41.0 0 ------- null}
- -t 0.1 -s 21 -d 0 -p tcp -e 40 -c 1 -i 19 -a 1 -x {21.0 41.0 0 ------- null}
h -t 0.1 -s 21 -d 0 -p tcp -e 40 -c 1 -i 19 -a 1 -x {21.0 41.0 -1 ------- null}
r -t 0.11016 -s 2 -d 0 -p tcp -e 40 -c 1 -i 0 -a 1 -x {2.0 22.0 0 ------- null}
+ -t 0.11016 -s 0 -d 1 -p tcp -e 40 -c 1 -i 0 -a 1 -x {2.0 22.0 0 ------- null}
- -t 0.11016 -s 0 -d 1 -p tcp -e 40 -c 1 -i 0 -a 1 -x {2.0 22.0 0 ------- null}
h -t 0.11016 -s 0 -d 1 -p tcp -e 40 -c 1 -i 0 -a 1 -x {2.0 22.0 -1 ------- null}
r -t 0.11016 -s 3 -d 0 -p tcp -e 40 -c 1 -i 1 -a 1 -x {3.0 23.0 0 ------- null}
+ -t 0.11016 -s 0 -d 1 -p tcp -e 40 -c 1 -i 1 -a 1 -x {3.0 23.0 0 ------- null}
r -t 0.11016 -s 4 -d 0 -p tcp -e 40 -c 1 -i 2 -a 1 -x {4.0 24.0 0 ------- null}
+ -t 0.11016 -s 0 -d 1 -p tcp -e 40 -c 1 -i 2 -a 1 -x {4.0 24.0 0 ------- null}
r -t 0.11016 -s 5 -d 0 -p tcp -e 40 -c 1 -i 3 -a 1 -x {5.0 25.0 0 ------- null}
+ -t 0.11016 -s 0 -d 1 -p tcp -e 40 -c 1 -i 3 -a 1 -x {5.0 25.0 0 ------- null}
r -t 0.11016 -s 6 -d 0 -p tcp -e 40 -c 1 -i 4 -a 1 -x {6.0 26.0 0 ------- null}
+ -t 0.11016 -s 0 -d 1 -p tcp -e 40 -c 1 -i 4 -a 1 -x {6.0 26.0 0 ------- null}
r -t 0.11016 -s 7 -d 0 -p tcp -e 40 -c 1 -i 5 -a 1 -x {7.0 27.0 0 ------- null}
+ -t 0.11016 -s 0 -d 1 -p tcp -e 40 -c 1 -i 5 -a 1 -x {7.0 27.0 0 ------- null}
r -t 0.11016 -s 8 -d 0 -p tcp -e 40 -c 1 -i 6 -a 1 -x {8.0 28.0 0 ------- null}
+ -t 0.11016 -s 0 -d 1 -p tcp -e 40 -c 1 -i 6 -a 1 -x {8.0 28.0 0 ------- null}
r -t 0.11016 -s 9 -d 0 -p tcp -e 40 -c 1 -i 7 -a 1 -x {9.0 29.0 0 ------- null}
+ -t 0.11016 -s 0 -d 1 -p tcp -e 40 -c 1 -i 7 -a 1 -x {9.0 29.0 0 ------- null}
r -t 0.11016 -s 10 -d 0 -p tcp -e 40 -c 1 -i 8 -a 1 -x {10.0 30.0 0 ------- null}
+ -t 0.11016 -s 0 -d 1 -p tcp -e 40 -c 1 -i 8 -a 1 -x {10.0 30.0 0 ------- null}
r -t 0.11016 -s 11 -d 0 -p tcp -e 40 -c 1 -i 9 -a 1 -x {11.0 31.0 0 ------- null}
+ -t 0.11016 -s 0 -d 1 -p tcp -e 40 -c 1 -i 9 -a 1 -x {11.0 31.0 0 ------- null}
r -t 0.11016 -s 12 -d 0 -p tcp -e 40 -c 1 -i 10 -a 1 -x {12.0 32.0 0 ------- null}
+ -t 0.11016 -s 0 -d 1 -p tcp -e 40 -c 1 -i 10 -a 1 -x {12.0 32.0 0 ------- null}
r -t 0.11016 -s 13 -d 0 -p tcp -e 40 -c 1 -i 11 -a 1 -x {13.0 33.0 0 ------- null}
+ -t 0.11016 -s 0 -d 1 -p tcp -e 40 -c 1 -i 11 -a 1 -x {13.0 33.0 0 ------- null}
r -t 0.11016 -s 14 -d 0 -p tcp -e 40 -c 1 -i 12 -a 1 -x {14.0 34.0 0 ------- null}
+ -t 0.11016 -s 0 -d 1 -p tcp -e 40 -c 1 -i 12 -a 1 -x {14.0 34.0 0 ------- null}
r -t 0.11016 -s 15 -d 0 -p tcp -e 40 -c 1 -i 13 -a 1 -x {15.0 35.0 0 ------- null}
+ -t 0.11016 -s 0 -d 1 -p tcp -e 40 -c 1 -i 13 -a 1 -x {15.0 35.0 0 ------- null}
r -t 0.11016 -s 16 -d 0 -p tcp -e 40 -c 1 -i 14 -a 1 -x {16.0 36.0 0 ------- null}
+ -t 0.11016 -s 0 -d 1 -p tcp -e 40 -c 1 -i 14 -a 1 -x {16.0 36.0 0 ------- null}
r -t 0.11016 -s 17 -d 0 -p tcp -e 40 -c 1 -i 15 -a 1 -x {17.0 37.0 0 ------- null}
+ -t 0.11016 -s 0 -d 1 -p tcp -e 40 -c 1 -i 15 -a 1 -x {17.0 37.0 0 ------- null}
r -t 0.11016 -s 18 -d 0 -p tcp -e 40 -c 1 -i 16 -a 1 -x {18.0 38.0 0 ------- null}
+ -t 0.11016 -s 0 -d 1 -p tcp -e 40 -c 1 -i 16 -a 1 -x {18.0 38.0 0 ------- null}
r -t 0.11016 -s 19 -d 0 -p tcp -e 40 -c 1 -i 17 -a 1 -x {19.0 39.0 0 ------- null}
+ -t 0.11016 -s 0 -d 1 -p tcp -e 40 -c 1 -i 17 -a 1 -x {19.0 39.0 0 ------- null}
r -t 0.11016 -s 20 -d 0 -p tcp -e 40 -c 1 -i 18 -a 1 -x {20.0 40.0 0 ------- null}
+ -t 0.11016 -s 0 -d 1 -p tcp -e 40 -c 1 -i 18 -a 1 -x {20.0 40.0 0 ------- null}
r -t 0.11016 -s 21 -d 0 -p tcp -e 40 -c 1 -i 19 -a 1 -x {21.0 41.0 0 ------- null}
+ -t 0.11016 -s 0 -d 1 -p tcp -e 40 -c 1 -i 19 -a 1 -x {21.0 41.0 0 ------- null}
- -t 0.11032 -s 0 -d 1 -p tcp -e 40 -c 1 -i 1 -a 1 -x {3.0 23.0 0 ------- null}
h -t 0.11032 -s 0 -d 1 -p tcp -e 40 -c 1 -i 1 -a 1 -x {3.0 23.0 -1 ------- null}
- -t 0.11048 -s 0 -d 1 -p tcp -e 40 -c 1 -i 2 -a 1 -x {4.0 24.0 0 ------- null}
h -t 0.11048 -s 0 -d 1 -p tcp -e 40 -c 1 -i 2 -a 1 -x {4.0 24.0 -1 ------- null}
- -t 0.11064 -s 0 -d 1 -p tcp -e 40 -c 1 -i 3 -a 1 -x {5.0 25.0 0 ------- null}
h -t 0.11064 -s 0 -d 1 -p tcp -e 40 -c 1 -i 3 -a 1 -x {5.0 25.0 -1 ------- null}
- -t 0.1108 -s 0 -d 1 -p tcp -e 40 -c 1 -i 4 -a 1 -x {6.0 26.0 0 ------- null}
h -t 0.1108 -s 0 -d 1 -p tcp -e 40 -c 1 -i 4 -a 1 -x {6.0 26.0 -1 ------- null}
- -t 0.11096 -s 0 -d 1 -p tcp -e 40 -c 1 -i 5 -a 1 -x {7.0 27.0 0 ------- null}
h -t 0.11096 -s 0 -d 1 -p tcp -e 40 -c 1 -i 5 -a 1 -x {7.0 27.0 -1 ------- null}
- -t 0.11112 -s 0 -d 1 -p tcp -e 40 -c 1 -i 6 -a 1 -x {8.0 28.0 0 ------- null}
h -t 0.11112 -s 0 -d 1 -p tcp -e 40 -c 1 -i 6 -a 1 -x {8.0 28.0 -1 ------- null}
- -t 0.11128 -s 0 -d 1 -p tcp -e 40 -c 1 -i 7 -a 1 -x {9.0 29.0 0 ------- null}
h -t 0.11128 -s 0 -d 1 -p tcp -e 40 -c 1 -i 7 -a 1 -x {9.0 29.0 -1 ------- null}
- -t 0.11144 -s 0 -d 1 -p tcp -e 40 -c 1 -i 8 -a 1 -x {10.0 30.0 0 ------- null}
h -t 0.11144 -s 0 -d 1 -p tcp -e 40 -c 1 -i 8 -a 1 -x {10.0 30.0 -1 ------- null}
- -t 0.1116 -s 0 -d 1 -p tcp -e 40 -c 1 -i 9 -a 1 -x {11.0 31.0 0 ------- null}
h -t 0.1116 -s 0 -d 1 -p tcp -e 40 -c 1 -i 9 -a 1 -x {11.0 31.0 -1 ------- null}
- -t 0.11176 -s 0 -d 1 -p tcp -e 40 -c 1 -i 10 -a 1 -x {12.0 32.0 0 ------- null}
h -t 0.11176 -s 0 -d 1 -p tcp -e 40 -c 1 -i 10 -a 1 -x {12.0 32.0 -1 ------- null}
- -t 0.11192 -s 0 -d 1 -p tcp -e 40 -c 1 -i 11 -a 1 -x {13.0 33.0 0 ------- null}
h -t 0.11192 -s 0 -d 1 -p tcp -e 40 -c 1 -i 11 -a 1 -x {13.0 33.0 -1 ------- null}
- -t 0.11208 -s 0 -d 1 -p tcp -e 40 -c 1 -i 12 -a 1 -x {14.0 34.0 0 ------- null}
h -t 0.11208 -s 0 -d 1 -p tcp -e 40 -c 1 -i 12 -a 1 -x {14.0 34.0 -1 ------- null}
- -t 0.11224 -s 0 -d 1 -p tcp -e 40 -c 1 -i 13 -a 1 -x {15.0 35.0 0 ------- null}
h -t 0.11224 -s 0 -d 1 -p tcp -e 40 -c 1 -i 13 -a 1 -x {15.0 35.0 -1 ------- null}
- -t 0.1124 -s 0 -d 1 -p tcp -e 40 -c 1 -i 14 -a 1 -x {16.0 36.0 0 ------- null}
h -t 0.1124 -s 0 -d 1 -p tcp -e 40 -c 1 -i 14 -a 1 -x {16.0 36.0 -1 ------- null}
- -t 0.11256 -s 0 -d 1 -p tcp -e 40 -c 1 -i 15 -a 1 -x {17.0 37.0 0 ------- null}
h -t 0.11256 -s 0 -d 1 -p tcp -e 40 -c 1 -i 15 -a 1 -x {17.0 37.0 -1 ------- null}
- -t 0.11272 -s 0 -d 1 -p tcp -e 40 -c 1 -i 16 -a 1 -x {18.0 38.0 0 ------- null}
h -t 0.11272 -s 0 -d 1 -p tcp -e 40 -c 1 -i 16 -a 1 -x {18.0 38.0 -1 ------- null}
- -t 0.11288 -s 0 -d 1 -p tcp -e 40 -c 1 -i 17 -a 1 -x {19.0 39.0 0 ------- null}
h -t 0.11288 -s 0 -d 1 -p tcp -e 40 -c 1 -i 17 -a 1 -x {19.0 39.0 -1 ------- null}
- -t 0.11304 -s 0 -d 1 -p tcp -e 40 -c 1 -i 18 -a 1 -x {20.0 40.0 0 ------- null}
h -t 0.11304 -s 0 -d 1 -p tcp -e 40 -c 1 -i 18 -a 1 -x {20.0 40.0 -1 ------- null}
- -t 0.1132 -s 0 -d 1 -p tcp -e 40 -c 1 -i 19 -a 1 -x {21.0 41.0 0 ------- null}
h -t 0.1132 -s 0 -d 1 -p tcp -e 40 -c 1 -i 19 -a 1 -x {21.0 41.0 -1 ------- null}
r -t 0.12032 -s 0 -d 1 -p tcp -e 40 -c 1 -i 0 -a 1 -x {2.0 22.0 0 ------- null}
+ -t 0.12032 -s 1 -d 22 -p tcp -e 40 -c 1 -i 0 -a 1 -x {2.0 22.0 0 ------- null}
- -t 0.12032 -s 1 -d 22 -p tcp -e 40 -c 1 -i 0 -a 1 -x {2.0 22.0 0 ------- null}
h -t 0.12032 -s 1 -d 22 -p tcp -e 40 -c 1 -i 0 -a 1 -x {2.0 22.0 -1 ------- null}
r -t 0.12048 -s 0 -d 1 -p tcp -e 40 -c 1 -i 1 -a 1 -x {3.0 23.0 0 ------- null}
+ -t 0.12048 -s 1 -d 23 -p tcp -e 40 -c 1 -i 1 -a 1 -x {3.0 23.0 0 ------- null}
- -t 0.12048 -s 1 -d 23 -p tcp -e 40 -c 1 -i 1 -a 1 -x {3.0 23.0 0 ------- null}
h -t 0.12048 -s 1 -d 23 -p tcp -e 40 -c 1 -i 1 -a 1 -x {3.0 23.0 -1 ------- null}
r -t 0.12064 -s 0 -d 1 -p tcp -e 40 -c 1 -i 2 -a 1 -x {4.0 24.0 0 ------- null}
+ -t 0.12064 -s 1 -d 24 -p tcp -e 40 -c 1 -i 2 -a 1 -x {4.0 24.0 0 ------- null}
- -t 0.12064 -s 1 -d 24 -p tcp -e 40 -c 1 -i 2 -a 1 -x {4.0 24.0 0 ------- null}
h -t 0.12064 -s 1 -d 24 -p tcp -e 40 -c 1 -i 2 -a 1 -x {4.0 24.0 -1 ------- null}
r -t 0.1208 -s 0 -d 1 -p tcp -e 40 -c 1 -i 3 -a 1 -x {5.0 25.0 0 ------- null}
+ -t 0.1208 -s 1 -d 25 -p tcp -e 40 -c 1 -i 3 -a 1 -x {5.0 25.0 0 ------- null}
- -t 0.1208 -s 1 -d 25 -p tcp -e 40 -c 1 -i 3 -a 1 -x {5.0 25.0 0 ------- null}
h -t 0.1208 -s 1 -d 25 -p tcp -e 40 -c 1 -i 3 -a 1 -x {5.0 25.0 -1 ------- null}
r -t 0.12096 -s 0 -d 1 -p tcp -e 40 -c 1 -i 4 -a 1 -x {6.0 26.0 0 ------- null}
+ -t 0.12096 -s 1 -d 26 -p tcp -e 40 -c 1 -i 4 -a 1 -x {6.0 26.0 0 ------- null}
- -t 0.12096 -s 1 -d 26 -p tcp -e 40 -c 1 -i 4 -a 1 -x {6.0 26.0 0 ------- null}
h -t 0.12096 -s 1 -d 26 -p tcp -e 40 -c 1 -i 4 -a 1 -x {6.0 26.0 -1 ------- null}
r -t 0.12112 -s 0 -d 1 -p tcp -e 40 -c 1 -i 5 -a 1 -x {7.0 27.0 0 ------- null}
+ -t 0.12112 -s 1 -d 27 -p tcp -e 40 -c 1 -i 5 -a 1 -x {7.0 27.0 0 ------- null}
- -t 0.12112 -s 1 -d 27 -p tcp -e 40 -c 1 -i 5 -a 1 -x {7.0 27.0 0 ------- null}
h -t 0.12112 -s 1 -d 27 -p tcp -e 40 -c 1 -i 5 -a 1 -x {7.0 27.0 -1 ------- null}
r -t 0.12128 -s 0 -d 1 -p tcp -e 40 -c 1 -i 6 -a 1 -x {8.0 28.0 0 ------- null}
+ -t 0.12128 -s 1 -d 28 -p tcp -e 40 -c 1 -i 6 -a 1 -x {8.0 28.0 0 ------- null}
- -t 0.12128 -s 1 -d 28 -p tcp -e 40 -c 1 -i 6 -a 1 -x {8.0 28.0 0 ------- null}
h -t 0.12128 -s 1 -d 28 -p tcp -e 40 -c 1 -i 6 -a 1 -x {8.0 28.0 -1 ------- null}
r -t 0.12144 -s 0 -d 1 -p tcp -e 40 -c 1 -i 7 -a 1 -x {9.0 29.0 0 ------- null}
+ -t 0.12144 -s 1 -d 29 -p tcp -e 40 -c 1 -i 7 -a 1 -x {9.0 29.0 0 ------- null}
- -t 0.12144 -s 1 -d 29 -p tcp -e 40 -c 1 -i 7 -a 1 -x {9.0 29.0 0 ------- null}
h -t 0.12144 -s 1 -d 29 -p tcp -e 40 -c 1 -i 7 -a 1 -x {9.0 29.0 -1 ------- null}
r -t 0.1216 -s 0 -d 1 -p tcp -e 40 -c 1 -i 8 -a 1 -x {10.0 30.0 0 ------- null}
+ -t 0.1216 -s 1 -d 30 -p tcp -e 40 -c 1 -i 8 -a 1 -x {10.0 30.0 0 ------- null}
- -t 0.1216 -s 1 -d 30 -p tcp -e 40 -c 1 -i 8 -a 1 -x {10.0 30.0 0 ------- null}
h -t 0.1216 -s 1 -d 30 -p tcp -e 40 -c 1 -i 8 -a 1 -x {10.0 30.0 -1 ------- null}
r -t 0.12176 -s 0 -d 1 -p tcp -e 40 -c 1 -i 9 -a 1 -x {11.0 31.0 0 ------- null}
+ -t 0.12176 -s 1 -d 31 -p tcp -e 40 -c 1 -i 9 -a 1 -x {11.0 31.0 0 ------- null}
- -t 0.12176 -s 1 -d 31 -p tcp -e 40 -c 1 -i 9 -a 1 -x {11.0 31.0 0 ------- null}
h -t 0.12176 -s 1 -d 31 -p tcp -e 40 -c 1 -i 9 -a 1 -x {11.0 31.0 -1 ------- null}
r -t 0.12192 -s 0 -d 1 -p tcp -e 40 -c 1 -i 10 -a 1 -x {12.0 32.0 0 ------- null}
+ -t 0.12192 -s 1 -d 32 -p tcp -e 40 -c 1 -i 10 -a 1 -x {12.0 32.0 0 ------- null}
- -t 0.12192 -s 1 -d 32 -p tcp -e 40 -c 1 -i 10 -a 1 -x {12.0 32.0 0 ------- null}
h -t 0.12192 -s 1 -d 32 -p tcp -e 40 -c 1 -i 10 -a 1 -x {12.0 32.0 -1 ------- null}
r -t 0.12208 -s 0 -d 1 -p tcp -e 40 -c 1 -i 11 -a 1 -x {13.0 33.0 0 ------- null}
+ -t 0.12208 -s 1 -d 33 -p tcp -e 40 -c 1 -i 11 -a 1 -x {13.0 33.0 0 ------- null}
- -t 0.12208 -s 1 -d 33 -p tcp -e 40 -c 1 -i 11 -a 1 -x {13.0 33.0 0 ------- null}
h -t 0.12208 -s 1 -d 33 -p tcp -e 40 -c 1 -i 11 -a 1 -x {13.0 33.0 -1 ------- null}
r -t 0.12224 -s 0 -d 1 -p tcp -e 40 -c 1 -i 12 -a 1 -x {14.0 34.0 0 ------- null}
+ -t 0.12224 -s 1 -d 34 -p tcp -e 40 -c 1 -i 12 -a 1 -x {14.0 34.0 0 ------- null}
- -t 0.12224 -s 1 -d 34 -p tcp -e 40 -c 1 -i 12 -a 1 -x {14.0 34.0 0 ------- null}
h -t 0.12224 -s 1 -d 34 -p tcp -e 40 -c 1 -i 12 -a 1 -x {14.0 34.0 -1 ------- null}
r -t 0.1224 -s 0 -d 1 -p tcp -e 40 -c 1 -i 13 -a 1 -x {15.0 35.0 0 ------- null}
+ -t 0.1224 -s 1 -d 35 -p tcp -e 40 -c 1 -i 13 -a 1 -x {15.0 35.0 0 ------- null}
- -t 0.1224 -s 1 -d 35 -p tcp -e 40 -c 1 -i 13 -a 1 -x {15.0 35.0 0 ------- null}
h -t 0.1224 -s 1 -d 35 -p tcp -e 40 -c 1 -i 13 -a 1 -x {15.0 35.0 -1 ------- null}
r -t 0.12256 -s 0 -d 1 -p tcp -e 40 -c 1 -i 14 -a 1 -x {16.0 36.0 0 ------- null}
+ -t 0.12256 -s 1 -d 36 -p tcp -e 40 -c 1 -i 14 -a 1 -x {16.0 36.0 0 ------- null}
- -t 0.12256 -s 1 -d 36 -p tcp -e 40 -c 1 -i 14 -a 1 -x {16.0 36.0 0 ------- null}
h -t 0.12256 -s 1 -d 36 -p tcp -e 40 -c 1 -i 14 -a 1 -x {16.0 36.0 -1 ------- null}
r -t 0.12272 -s 0 -d 1 -p tcp -e 40 -c 1 -i 15 -a 1 -x {17.0 37.0 0 ------- null}
+ -t 0.12272 -s 1 -d 37 -p tcp -e 40 -c 1 -i 15 -a 1 -x {17.0 37.0 0 ------- null}
- -t 0.12272 -s 1 -d 37 -p tcp -e 40 -c 1 -i 15 -a 1 -x {17.0 37.0 0 ------- null}
h -t 0.12272 -s 1 -d 37 -p tcp -e 40 -c 1 -i 15 -a 1 -x {17.0 37.0 -1 ------- null}
r -t 0.12288 -s 0 -d 1 -p tcp -e 40 -c 1 -i 16 -a 1 -x {18.0 38.0 0 ------- null}
+ -t 0.12288 -s 1 -d 38 -p tcp -e 40 -c 1 -i 16 -a 1 -x {18.0 38.0 0 ------- null}
- -t 0.12288 -s 1 -d 38 -p tcp -e 40 -c 1 -i 16 -a 1 -x {18.0 38.0 0 ------- null}
h -t 0.12288 -s 1 -d 38 -p tcp -e 40 -c 1 -i 16 -a 1 -x {18.0 38.0 -1 ------- null}
r -t 0.12304 -s 0 -d 1 -p tcp -e 40 -c 1 -i 17 -a 1 -x {19.0 39.0 0 ------- null}
+ -t 0.12304 -s 1 -d 39 -p tcp -e 40 -c 1 -i 17 -a 1 -x {19.0 39.0 0 ------- null}
- -t 0.12304 -s 1 -d 39 -p tcp -e 40 -c 1 -i 17 -a 1 -x {19.0 39.0 0 ------- null}
h -t 0.12304 -s 1 -d 39 -p tcp -e 40 -c 1 -i 17 -a 1 -x {19.0 39.0 -1 ------- null}
r -t 0.1232 -s 0 -d 1 -p tcp -e 40 -c 1 -i 18 -a 1 -x {20.0 40.0 0 ------- null}
+ -t 0.1232 -s 1 -d 40 -p tcp -e 40 -c 1 -i 18 -a 1 -x {20.0 40.0 0 ------- null}
- -t 0.1232 -s 1 -d 40 -p tcp -e 40 -c 1 -i 18 -a 1 -x {20.0 40.0 0 ------- null}
h -t 0.1232 -s 1 -d 40 -p tcp -e 40 -c 1 -i 18 -a 1 -x {20.0 40.0 -1 ------- null}
r -t 0.12336 -s 0 -d 1 -p tcp -e 40 -c 1 -i 19 -a 1 -x {21.0 41.0 0 ------- null}
+ -t 0.12336 -s 1 -d 41 -p tcp -e 40 -c 1 -i 19 -a 1 -x {21.0 41.0 0 ------- null}
- -t 0.12336 -s 1 -d 41 -p tcp -e 40 -c 1 -i 19 -a 1 -x {21.0 41.0 0 ------- null}
h -t 0.12336 -s 1 -d 41 -p tcp -e 40 -c 1 -i 19 -a 1 -x {21.0 41.0 -1 ------- null}
r -t 0.13048 -s 1 -d 22 -p tcp -e 40 -c 1 -i 0 -a 1 -x {2.0 22.0 0 ------- null}
+ -t 0.13048 -s 22 -d 1 -p ack -e 40 -c 1 -i 20 -a 1 -x {22.0 2.0 0 ------- null}
- -t 0.13048 -s 22 -d 1 -p ack -e 40 -c 1 -i 20 -a 1 -x {22.0 2.0 0 ------- null}
h -t 0.13048 -s 22 -d 1 -p ack -e 40 -c 1 -i 20 -a 1 -x {22.0 2.0 -1 ------- null}
r -t 0.13064 -s 1 -d 23 -p tcp -e 40 -c 1 -i 1 -a 1 -x {3.0 23.0 0 ------- null}
+ -t 0.13064 -s 23 -d 1 -p ack -e 40 -c 1 -i 21 -a 1 -x {23.0 3.0 0 ------- null}
- -t 0.13064 -s 23 -d 1 -p ack -e 40 -c 1 -i 21 -a 1 -x {23.0 3.0 0 ------- null}
h -t 0.13064 -s 23 -d 1 -p ack -e 40 -c 1 -i 21 -a 1 -x {23.0 3.0 -1 ------- null}
r -t 0.1308 -s 1 -d 24 -p tcp -e 40 -c 1 -i 2 -a 1 -x {4.0 24.0 0 ------- null}
+ -t 0.1308 -s 24 -d 1 -p ack -e 40 -c 1 -i 22 -a 1 -x {24.0 4.0 0 ------- null}
- -t 0.1308 -s 24 -d 1 -p ack -e 40 -c 1 -i 22 -a 1 -x {24.0 4.0 0 ------- null}
h -t 0.1308 -s 24 -d 1 -p ack -e 40 -c 1 -i 22 -a 1 -x {24.0 4.0 -1 ------- null}
r -t 0.13096 -s 1 -d 25 -p tcp -e 40 -c 1 -i 3 -a 1 -x {5.0 25.0 0 ------- null}
+ -t 0.13096 -s 25 -d 1 -p ack -e 40 -c 1 -i 23 -a 1 -x {25.0 5.0 0 ------- null}
- -t 0.13096 -s 25 -d 1 -p ack -e 40 -c 1 -i 23 -a 1 -x {25.0 5.0 0 ------- null}
h -t 0.13096 -s 25 -d 1 -p ack -e 40 -c 1 -i 23 -a 1 -x {25.0 5.0 -1 ------- null}
r -t 0.13112 -s 1 -d 26 -p tcp -e 40 -c 1 -i 4 -a 1 -x {6.0 26.0 0 ------- null}
+ -t 0.13112 -s 26 -d 1 -p ack -e 40 -c 1 -i 24 -a 1 -x {26.0 6.0 0 ------- null}
- -t 0.13112 -s 26 -d 1 -p ack -e 40 -c 1 -i 24 -a 1 -x {26.0 6.0 0 ------- null}
h -t 0.13112 -s 26 -d 1 -p ack -e 40 -c 1 -i 24 -a 1 -x {26.0 6.0 -1 ------- null}
r -t 0.13128 -s 1 -d 27 -p tcp -e 40 -c 1 -i 5 -a 1 -x {7.0 27.0 0 ------- null}
+ -t 0.13128 -s 27 -d 1 -p ack -e 40 -c 1 -i 25 -a 1 -x {27.0 7.0 0 ------- null}
- -t 0.13128 -s 27 -d 1 -p ack -e 40 -c 1 -i 25 -a 1 -x {27.0 7.0 0 ------- null}
h -t 0.13128 -s 27 -d 1 -p ack -e 40 -c 1 -i 25 -a 1 -x {27.0 7.0 -1 ------- null}
r -t 0.13144 -s 1 -d 28 -p tcp -e 40 -c 1 -i 6 -a 1 -x {8.0 28.0 0 ------- null}
+ -t 0.13144 -s 28 -d 1 -p ack -e 40 -c 1 -i 26 -a 1 -x {28.0 8.0 0 ------- null}
- -t 0.13144 -s 28 -d 1 -p ack -e 40 -c 1 -i 26 -a 1 -x {28.0 8.0 0 ------- null}
h -t 0.13144 -s 28 -d 1 -p ack -e 40 -c 1 -i 26 -a 1 -x {28.0 8.0 -1 ------- null}
r -t 0.1316 -s 1 -d 29 -p tcp -e 40 -c 1 -i 7 -a 1 -x {9.0 29.0 0 ------- null}
+ -t 0.1316 -s 29 -d 1 -p ack -e 40 -c 1 -i 27 -a 1 -x {29.0 9.0 0 ------- null}
- -t 0.1316 -s 29 -d 1 -p ack -e 40 -c 1 -i 27 -a 1 -x {29.0 9.0 0 ------- null}
h -t 0.1316 -s 29 -d 1 -p ack -e 40 -c 1 -i 27 -a 1 -x {29.0 9.0 -1 ------- null}
r -t 0.13176 -s 1 -d 30 -p tcp -e 40 -c 1 -i 8 -a 1 -x {10.0 30.0 0 ------- null}
+ -t 0.13176 -s 30 -d 1 -p ack -e 40 -c 1 -i 28 -a 1 -x {30.0 10.0 0 ------- null}
- -t 0.13176 -s 30 -d 1 -p ack -e 40 -c 1 -i 28 -a 1 -x {30.0 10.0 0 ------- null}
h -t 0.13176 -s 30 -d 1 -p ack -e 40 -c 1 -i 28 -a 1 -x {30.0 10.0 -1 ------- null}
r -t 0.13192 -s 1 -d 31 -p tcp -e 40 -c 1 -i 9 -a 1 -x {11.0 31.0 0 ------- null}
+ -t 0.13192 -s 31 -d 1 -p ack -e 40 -c 1 -i 29 -a 1 -x {31.0 11.0 0 ------- null}
- -t 0.13192 -s 31 -d 1 -p ack -e 40 -c 1 -i 29 -a 1 -x {31.0 11.0 0 ------- null}
h -t 0.13192 -s 31 -d 1 -p ack -e 40 -c 1 -i 29 -a 1 -x {31.0 11.0 -1 ------- null}
r -t 0.13208 -s 1 -d 32 -p tcp -e 40 -c 1 -i 10 -a 1 -x {12.0 32.0 0 ------- null}
+ -t 0.13208 -s 32 -d 1 -p ack -e 40 -c 1 -i 30 -a 1 -x {32.0 12.0 0 ------- null}
- -t 0.13208 -s 32 -d 1 -p ack -e 40 -c 1 -i 30 -a 1 -x {32.0 12.0 0 ------- null}
h -t 0.13208 -s 32 -d 1 -p ack -e 40 -c 1 -i 30 -a 1 -x {32.0 12.0 -1 ------- null}
r -t 0.13224 -s 1 -d 33 -p tcp -e 40 -c 1 -i 11 -a 1 -x {13.0 33.0 0 ------- null}
+ -t 0.13224 -s 33 -d 1 -p ack -e 40 -c 1 -i 31 -a 1 -x {33.0 13.0 0 ------- null}
- -t 0.13224 -s 33 -d 1 -p ack -e 40 -c 1 -i 31 -a 1 -x {33.0 13.0 0 ------- null}
h -t 0.13224 -s 33 -d 1 -p ack -e 40 -c 1 -i 31 -a 1 -x {33.0 13.0 -1 ------- null}
r -t 0.1324 -s 1 -d 34 -p tcp -e 40 -c 1 -i 12 -a 1 -x {14.0 34.0 0 ------- null}
+ -t 0.1324 -s 34 -d 1 -p ack -e 40 -c 1 -i 32 -a 1 -x {34.0 14.0 0 ------- null}
- -t 0.1324 -s 34 -d 1 -p ack -e 40 -c 1 -i 32 -a 1 -x {34.0 14.0 0 ------- null}
h -t 0.1324 -s 34 -d 1 -p ack -e 40 -c 1 -i 32 -a 1 -x {34.0 14.0 -1 ------- null}
r -t 0.13256 -s 1 -d 35 -p tcp -e 40 -c 1 -i 13 -a 1 -x {15.0 35.0 0 ------- null}
+ -t 0.13256 -s 35 -d 1 -p ack -e 40 -c 1 -i 33 -a 1 -x {35.0 15.0 0 ------- null}
- -t 0.13256 -s 35 -d 1 -p ack -e 40 -c 1 -i 33 -a 1 -x {35.0 15.0 0 ------- null}
h -t 0.13256 -s 35 -d 1 -p ack -e 40 -c 1 -i 33 -a 1 -x {35.0 15.0 -1 ------- null}
r -t 0.13272 -s 1 -d 36 -p tcp -e 40 -c 1 -i 14 -a 1 -x {16.0 36.0 0 ------- null}
+ -t 0.13272 -s 36 -d 1 -p ack -e 40 -c 1 -i 34 -a 1 -x {36.0 16.0 0 ------- null}
- -t 0.13272 -s 36 -d 1 -p ack -e 40 -c 1 -i 34 -a 1 -x {36.0 16.0 0 ------- null}
h -t 0.13272 -s 36 -d 1 -p ack -e 40 -c 1 -i 34 -a 1 -x {36.0 16.0 -1 ------- null}
r -t 0.13288 -s 1 -d 37 -p tcp -e 40 -c 1 -i 15 -a 1 -x {17.0 37.0 0 ------- null}
+ -t 0.13288 -s 37 -d 1 -p ack -e 40 -c 1 -i 35 -a 1 -x {37.0 17.0 0 ------- null}
- -t 0.13288 -s 37 -d 1 -p ack -e 40 -c 1 -i 35 -a 1 -x {37.0 17.0 0 ------- null}
h -t 0.13288 -s 37 -d 1 -p ack -e 40 -c 1 -i 35 -a 1 -x {37.0 17.0 -1 ------- null}
r -t 0.13304 -s 1 -d 38 -p tcp -e 40 -c 1 -i 16 -a 1 -x {18.0 38.0 0 ------- null}
+ -t 0.13304 -s 38 -d 1 -p ack -e 40 -c 1 -i 36 -a 1 -x {38.0 18.0 0 ------- null}
- -t 0.13304 -s 38 -d 1 -p ack -e 40 -c 1 -i 36 -a 1 -x {38.0 18.0 0 ------- null}
h -t 0.13304 -s 38 -d 1 -p ack -e 40 -c 1 -i 36 -a 1 -x {38.0 18.0 -1 ------- null}
r -t 0.1332 -s 1 -d 39 -p tcp -e 40 -c 1 -i 17 -a 1 -x {19.0 39.0 0 ------- null}
+ -t 0.1332 -s 39 -d 1 -p ack -e 40 -c 1 -i 37 -a 1 -x {39.0 19.0 0 ------- null}
- -t 0.1332 -s 39 -d 1 -p ack -e 40 -c 1 -i 37 -a 1 -x {39.0 19.0 0 ------- null}
h -t 0.1332 -s 39 -d 1 -p ack -e 40 -c 1 -i 37 -a 1 -x {39.0 19.0 -1 ------- null}
r -t 0.13336 -s 1 -d 40 -p tcp -e 40 -c 1 -i 18 -a 1 -x {20.0 40.0 0 ------- null}
+ -t 0.13336 -s 40 -d 1 -p ack -e 40 -c 1 -i 38 -a 1 -x {40.0 20.0 0 ------- null}
- -t 0.13336 -s 40 -d 1 -p ack -e 40 -c 1 -i 38 -a 1 -x {40.0 20.0 0 ------- null}
h -t 0.13336 -s 40 -d 1 -p ack -e 40 -c 1 -i 38 -a 1 -x {40.0 20.0 -1 ------- null}
r -t 0.13352 -s 1 -d 41 -p tcp -e 40 -c 1 -i 19 -a 1 -x {21.0 41.0 0 ------- null}
+ -t 0.13352 -s 41 -d 1 -p ack -e 40 -c 1 -i 39 -a 1 -x {41.0 21.0 0 ------- null}
- -t 0.13352 -s 41 -d 1 -p ack -e 40 -c 1 -i 39 -a 1 -x {41.0 21.0 0 ------- null}
h -t 0.13352 -s 41 -d 1 -p ack -e 40 -c 1 -i 39 -a 1 -x {41.0 21.0 -1 ------- null}
r -t 0.14064 -s 22 -d 1 -p ack -e 40 -c 1 -i 20 -a 1 -x {22.0 2.0 0 ------- null}
+ -t 0.14064 -s 1 -d 0 -p ack -e 40 -c 1 -i 20 -a 1 -x {22.0 2.0 0 ------- null}
- -t 0.14064 -s 1 -d 0 -p ack -e 40 -c 1 -i 20 -a 1 -x {22.0 2.0 0 ------- null}
h -t 0.14064 -s 1 -d 0 -p ack -e 40 -c 1 -i 20 -a 1 -x {22.0 2.0 -1 ------- null}
r -t 0.1408 -s 23 -d 1 -p ack -e 40 -c 1 -i 21 -a 1 -x {23.0 3.0 0 ------- null}
+ -t 0.1408 -s 1 -d 0 -p ack -e 40 -c 1 -i 21 -a 1 -x {23.0 3.0 0 ------- null}
- -t 0.1408 -s 1 -d 0 -p ack -e 40 -c 1 -i 21 -a 1 -x {23.0 3.0 0 ------- null}
h -t 0.1408 -s 1 -d 0 -p ack -e 40 -c 1 -i 21 -a 1 -x {23.0 3.0 -1 ------- null}
r -t 0.14096 -s 24 -d 1 -p ack -e 40 -c 1 -i 22 -a 1 -x {24.0 4.0 0 ------- null}
+ -t 0.14096 -s 1 -d 0 -p ack -e 40 -c 1 -i 22 -a 1 -x {24.0 4.0 0 ------- null}
- -t 0.14096 -s 1 -d 0 -p ack -e 40 -c 1 -i 22 -a 1 -x {24.0 4.0 0 ------- null}
h -t 0.14096 -s 1 -d 0 -p ack -e 40 -c 1 -i 22 -a 1 -x {24.0 4.0 -1 ------- null}
r -t 0.14112 -s 25 -d 1 -p ack -e 40 -c 1 -i 23 -a 1 -x {25.0 5.0 0 ------- null}
+ -t 0.14112 -s 1 -d 0 -p ack -e 40 -c 1 -i 23 -a 1 -x {25.0 5.0 0 ------- null}