+ 0.1 2 0 tcp 40 ------- 1 2.0 22.0 0 0
- 0.1 2 0 tcp 40 ------- 1 2.0 22.0 0 0
+ 0.1 3 0 tcp 40 ------- 1 3.0 23.0 0 1
- 0.1 3 0 tcp 40 ------- 1 3.0 23.0 0 1
+ 0.1 4 0 tcp 40 ------- 1 4.0 24.0 0 2
- 0.1 4 0 tcp 40 ------- 1 4.0 24.0 0 2
+ 0.1 5 0 tcp 40 ------- 1 5.0 25.0 0 3
- 0.1 5 0 tcp 40 ------- 1 5.0 25.0 0 3
+ 0.1 6 0 tcp 40 ------- 1 6.0 26.0 0 4
- 0.1 6 0 tcp 40 ------- 1 6.0 26.0 0 4
+ 0.1 7 0 tcp 40 ------- 1 7.0 27.0 0 5
- 0.1 7 0 tcp 40 ------- 1 7.0 27.0 0 5
+ 0.1 8 0 tcp 40 ------- 1 8.0 28.0 0 6
- 0.1 8 0 tcp 40 ------- 1 8.0 28.0 0 6
+ 0.1 9 0 tcp 40 ------- 1 9.0 29.0 0 7
- 0.1 9 0 tcp 40 ------- 1 9.0 29.0 0 7
+ 0.1 10 0 tcp 40 ------- 1 10.0 30.0 0 8
- 0.1 10 0 tcp 40 ------- 1 10.0 30.0 0 8
+ 0.1 11 0 tcp 40 ------- 1 11.0 31.0 0 9
- 0.1 11 0 tcp 40 ------- 1 11.0 31.0 0 9
+ 0.1 12 0 tcp 40 ------- 1 12.0 32.0 0 10
- 0.1 12 0 tcp 40 ------- 1 12.0 32.0 0 10
+ 0.1 13 0 tcp 40 ------- 1 13.0 33.0 0 11
- 0.1 13 0 tcp 40 ------- 1 13.0 33.0 0 11
+ 0.1 14 0 tcp 40 ------- 1 14.0 34.0 0 12
- 0.1 14 0 tcp 40 ------- 1 14.0 34.0 0 12
+ 0.1 15 0 tcp 40 ------- 1 15.0 35.0 0 13
- 0.1 15 0 tcp 40 ------- 1 15.0 35.0 0 13
+ 0.1 16 0 tcp 40 ------- 1 16.0 36.0 0 14
- 0.1 16 0 tcp 40 ------- 1 16.0 36.0 0 14
+ 0.1 17 0 tcp 40 ------- 1 17.0 37.0 0 15
- 0.1 17 0 tcp 40 ------- 1 17.0 37.0 0 15
+ 0.1 18 0 tcp 40 ------- 1 18.0 38.0 0 16
- 0.1 18 0 tcp 40 ------- 1 18.0 38.0 0 16
+ 0.1 19 0 tcp 40 ------- 1 19.0 39.0 0 17
- 0.1 19 0 tcp 40 ------- 1 19.0 39.0 0 17
+ 0.1 20 0 tcp 40 ------- 1 20.0 40.0 0 18
- 0.1 20 0 tcp 40 ------- 1 20.0 40.0 0 18
+ 0.1 21 0 tcp 40 ------- 1 21.0 41.0 0 19
- 0.1 21 0 tcp 40 ------- 1 21.0 41.0 0 19
r 0.11016 2 0 tcp 40 ------- 1 2.0 22.0 0 0
+ 0.11016 0 1 tcp 40 ------- 1 2.0 22.0 0 0
- 0.11016 0 1 tcp 40 ------- 1 2.0 22.0 0 0
r 0.11016 3 0 tcp 40 ------- 1 3.0 23.0 0 1
+ 0.11016 0 1 tcp 40 ------- 1 3.0 23.0 0 1
r 0.11016 4 0 tcp 40 ------- 1 4.0 24.0 0 2
+ 0.11016 0 1 tcp 40 ------- 1 4.0 24.0 0 2
r 0.11016 5 0 tcp 40 ------- 1 5.0 25.0 0 3
+ 0.11016 0 1 tcp 40 ------- 1 5.0 25.0 0 3
r 0.11016 6 0 tcp 40 ------- 1 6.0 26.0 0 4
+ 0.11016 0 1 tcp 40 ------- 1 6.0 26.0 0 4
r 0.11016 7 0 tcp 40 ------- 1 7.0 27.0 0 5
+ 0.11016 0 1 tcp 40 ------- 1 7.0 27.0 0 5
r 0.11016 8 0 tcp 40 ------- 1 8.0 28.0 0 6
+ 0.11016 0 1 tcp 40 ------- 1 8.0 28.0 0 6
r 0.11016 9 0 tcp 40 ------- 1 9.0 29.0 0 7
+ 0.11016 0 1 tcp 40 ------- 1 9.0 29.0 0 7
r 0.11016 10 0 tcp 40 ------- 1 10.0 30.0 0 8
+ 0.11016 0 1 tcp 40 ------- 1 10.0 30.0 0 8
r 0.11016 11 0 tcp 40 ------- 1 11.0 31.0 0 9
+ 0.11016 0 1 tcp 40 ------- 1 11.0 31.0 0 9
r 0.11016 12 0 tcp 40 ------- 1 12.0 32.0 0 10
+ 0.11016 0 1 tcp 40 ------- 1 12.0 32.0 0 10
r 0.11016 13 0 tcp 40 ------- 1 13.0 33.0 0 11
+ 0.11016 0 1 tcp 40 ------- 1 13.0 33.0 0 11
r 0.11016 14 0 tcp 40 ------- 1 14.0 34.0 0 12
+ 0.11016 0 1 tcp 40 ------- 1 14.0 34.0 0 12
r 0.11016 15 0 tcp 40 ------- 1 15.0 35.0 0 13
+ 0.11016 0 1 tcp 40 ------- 1 15.0 35.0 0 13
r 0.11016 16 0 tcp 40 ------- 1 16.0 36.0 0 14
+ 0.11016 0 1 tcp 40 ------- 1 16.0 36.0 0 14
r 0.11016 17 0 tcp 40 ------- 1 17.0 37.0 0 15
+ 0.11016 0 1 tcp 40 ------- 1 17.0 37.0 0 15
r 0.11016 18 0 tcp 40 ------- 1 18.0 38.0 0 16
+ 0.11016 0 1 tcp 40 ------- 1 18.0 38.0 0 16
r 0.11016 19 0 tcp 40 ------- 1 19.0 39.0 0 17
+ 0.11016 0 1 tcp 40 ------- 1 19.0 39.0 0 17
r 0.11016 20 0 tcp 40 ------- 1 20.0 40.0 0 18
+ 0.11016 0 1 tcp 40 ------- 1 20.0 40.0 0 18
r 0.11016 21 0 tcp 40 ------- 1 21.0 41.0 0 19
+ 0.11016 0 1 tcp 40 ------- 1 21.0 41.0 0 19
- 0.11032 0 1 tcp 40 ------- 1 3.0 23.0 0 1
- 0.11048 0 1 tcp 40 ------- 1 4.0 24.0 0 2
- 0.11064 0 1 tcp 40 ------- 1 5.0 25.0 0 3
- 0.1108 0 1 tcp 40 ------- 1 6.0 26.0 0 4
- 0.11096 0 1 tcp 40 ------- 1 7.0 27.0 0 5
- 0.11112 0 1 tcp 40 ------- 1 8.0 28.0 0 6
- 0.11128 0 1 tcp 40 ------- 1 9.0 29.0 0 7
- 0.11144 0 1 tcp 40 ------- 1 10.0 30.0 0 8
- 0.1116 0 1 tcp 40 ------- 1 11.0 31.0 0 9
- 0.11176 0 1 tcp 40 ------- 1 12.0 32.0 0 10
- 0.11192 0 1 tcp 40 ------- 1 13.0 33.0 0 11
- 0.11208 0 1 tcp 40 ------- 1 14.0 34.0 0 12
- 0.11224 0 1 tcp 40 ------- 1 15.0 35.0 0 13
- 0.1124 0 1 tcp 40 ------- 1 16.0 36.0 0 14
- 0.11256 0 1 tcp 40 ------- 1 17.0 37.0 0 15
- 0.11272 0 1 tcp 40 ------- 1 18.0 38.0 0 16
- 0.11288 0 1 tcp 40 ------- 1 19.0 39.0 0 17
- 0.11304 0 1 tcp 40 ------- 1 20.0 40.0 0 18
- 0.1132 0 1 tcp 40 ------- 1 21.0 41.0 0 19
r 0.12032 0 1 tcp 40 ------- 1 2.0 22.0 0 0
+ 0.12032 1 22 tcp 40 ------- 1 2.0 22.0 0 0
- 0.12032 1 22 tcp 40 ------- 1 2.0 22.0 0 0
r 0.12048 0 1 tcp 40 ------- 1 3.0 23.0 0 1
+ 0.12048 1 23 tcp 40 ------- 1 3.0 23.0 0 1
- 0.12048 1 23 tcp 40 ------- 1 3.0 23.0 0 1
r 0.12064 0 1 tcp 40 ------- 1 4.0 24.0 0 2
+ 0.12064 1 24 tcp 40 ------- 1 4.0 24.0 0 2
- 0.12064 1 24 tcp 40 ------- 1 4.0 24.0 0 2
r 0.1208 0 1 tcp 40 ------- 1 5.0 25.0 0 3
+ 0.1208 1 25 tcp 40 ------- 1 5.0 25.0 0 3
- 0.1208 1 25 tcp 40 ------- 1 5.0 25.0 0 3
r 0.12096 0 1 tcp 40 ------- 1 6.0 26.0 0 4
+ 0.12096 1 26 tcp 40 ------- 1 6.0 26.0 0 4
- 0.12096 1 26 tcp 40 ------- 1 6.0 26.0 0 4
r 0.12112 0 1 tcp 40 ------- 1 7.0 27.0 0 5
+ 0.12112 1 27 tcp 40 ------- 1 7.0 27.0 0 5
- 0.12112 1 27 tcp 40 ------- 1 7.0 27.0 0 5
r 0.12128 0 1 tcp 40 ------- 1 8.0 28.0 0 6
+ 0.12128 1 28 tcp 40 ------- 1 8.0 28.0 0 6
- 0.12128 1 28 tcp 40 ------- 1 8.0 28.0 0 6
r 0.12144 0 1 tcp 40 ------- 1 9.0 29.0 0 7
+ 0.12144 1 29 tcp 40 ------- 1 9.0 29.0 0 7
- 0.12144 1 29 tcp 40 ------- 1 9.0 29.0 0 7
r 0.1216 0 1 tcp 40 ------- 1 10.0 30.0 0 8
+ 0.1216 1 30 tcp 40 ------- 1 10.0 30.0 0 8
- 0.1216 1 30 tcp 40 ------- 1 10.0 30.0 0 8
r 0.12176 0 1 tcp 40 ------- 1 11.0 31.0 0 9
+ 0.12176 1 31 tcp 40 ------- 1 11.0 31.0 0 9
- 0.12176 1 31 tcp 40 ------- 1 11.0 31.0 0 9
r 0.12192 0 1 tcp 40 ------- 1 12.0 32.0 0 10
+ 0.12192 1 32 tcp 40 ------- 1 12.0 32.0 0 10
- 0.12192 1 32 tcp 40 ------- 1 12.0 32.0 0 10
r 0.12208 0 1 tcp 40 ------- 1 13.0 33.0 0 11
+ 0.12208 1 33 tcp 40 ------- 1 13.0 33.0 0 11
- 0.12208 1 33 tcp 40 ------- 1 13.0 33.0 0 11
r 0.12224 0 1 tcp 40 ------- 1 14.0 34.0 0 12
+ 0.12224 1 34 tcp 40 ------- 1 14.0 34.0 0 12
- 0.12224 1 34 tcp 40 ------- 1 14.0 34.0 0 12
r 0.1224 0 1 tcp 40 ------- 1 15.0 35.0 0 13
+ 0.1224 1 35 tcp 40 ------- 1 15.0 35.0 0 13
- 0.1224 1 35 tcp 40 ------- 1 15.0 35.0 0 13
r 0.12256 0 1 tcp 40 ------- 1 16.0 36.0 0 14
+ 0.12256 1 36 tcp 40 ------- 1 16.0 36.0 0 14
- 0.12256 1 36 tcp 40 ------- 1 16.0 36.0 0 14
r 0.12272 0 1 tcp 40 ------- 1 17.0 37.0 0 15
+ 0.12272 1 37 tcp 40 ------- 1 17.0 37.0 0 15
- 0.12272 1 37 tcp 40 ------- 1 17.0 37.0 0 15
r 0.12288 0 1 tcp 40 ------- 1 18.0 38.0 0 16
+ 0.12288 1 38 tcp 40 ------- 1 18.0 38.0 0 16
- 0.12288 1 38 tcp 40 ------- 1 18.0 38.0 0 16
r 0.12304 0 1 tcp 40 ------- 1 19.0 39.0 0 17
+ 0.12304 1 39 tcp 40 ------- 1 19.0 39.0 0 17
- 0.12304 1 39 tcp 40 ------- 1 19.0 39.0 0 17
r 0.1232 0 1 tcp 40 ------- 1 20.0 40.0 0 18
+ 0.1232 1 40 tcp 40 ------- 1 20.0 40.0 0 18
- 0.1232 1 40 tcp 40 ------- 1 20.0 40.0 0 18
r 0.12336 0 1 tcp 40 ------- 1 21.0 41.0 0 19
+ 0.12336 1 41 tcp 40 ------- 1 21.0 41.0 0 19
- 0.12336 1 41 tcp 40 ------- 1 21.0 41.0 0 19
r 0.13048 1 22 tcp 40 ------- 1 2.0 22.0 0 0
+ 0.13048 22 1 ack 40 ------- 1 22.0 2.0 0 20
- 0.13048 22 1 ack 40 ------- 1 22.0 2.0 0 20
r 0.13064 1 23 tcp 40 ------- 1 3.0 23.0 0 1
+ 0.13064 23 1 ack 40 ------- 1 23.0 3.0 0 21
- 0.13064 23 1 ack 40 ------- 1 23.0 3.0 0 21
r 0.1308 1 24 tcp 40 ------- 1 4.0 24.0 0 2
+ 0.1308 24 1 ack 40 ------- 1 24.0 4.0 0 22
- 0.1308 24 1 ack 40 ------- 1 24.0 4.0 0 22
r 0.13096 1 25 tcp 40 ------- 1 5.0 25.0 0 3
+ 0.13096 25 1 ack 40 ------- 1 25.0 5.0 0 23
- 0.13096 25 1 ack 40 ------- 1 25.0 5.0 0 23
r 0.13112 1 26 tcp 40 ------- 1 6.0 26.0 0 4
+ 0.13112 26 1 ack 40 ------- 1 26.0 6.0 0 24
- 0.13112 26 1 ack 40 ------- 1 26.0 6.0 0 24
r 0.13128 1 27 tcp 40 ------- 1 7.0 27.0 0 5
+ 0.13128 27 1 ack 40 ------- 1 27.0 7.0 0 25
- 0.13128 27 1 ack 40 ------- 1 27.0 7.0 0 25
r 0.13144 1 28 tcp 40 ------- 1 8.0 28.0 0 6
+ 0.13144 28 1 ack 40 ------- 1 28.0 8.0 0 26
- 0.13144 28 1 ack 40 ------- 1 28.0 8.0 0 26
r 0.1316 1 29 tcp 40 ------- 1 9.0 29.0 0 7
+ 0.1316 29 1 ack 40 ------- 1 29.0 9.0 0 27
- 0.1316 29 1 ack 40 ------- 1 29.0 9.0 0 27
r 0.13176 1 30 tcp 40 ------- 1 10.0 30.0 0 8
+ 0.13176 30 1 ack 40 ------- 1 30.0 10.0 0 28
- 0.13176 30 1 ack 40 ------- 1 30.0 10.0 0 28
r 0.13192 1 31 tcp 40 ------- 1 11.0 31.0 0 9
+ 0.13192 31 1 ack 40 ------- 1 31.0 11.0 0 29
- 0.13192 31 1 ack 40 ------- 1 31.0 11.0 0 29
r 0.13208 1 32 tcp 40 ------- 1 12.0 32.0 0 10
+ 0.13208 32 1 ack 40 ------- 1 32.0 12.0 0 30
- 0.13208 32 1 ack 40 ------- 1 32.0 12.0 0 30
r 0.13224 1 33 tcp 40 ------- 1 13.0 33.0 0 11
+ 0.13224 33 1 ack 40 ------- 1 33.0 13.0 0 31
- 0.13224 33 1 ack 40 ------- 1 33.0 13.0 0 31
r 0.1324 1 34 tcp 40 ------- 1 14.0 34.0 0 12
+ 0.1324 34 1 ack 40 ------- 1 34.0 14.0 0 32
- 0.1324 34 1 ack 40 ------- 1 34.0 14.0 0 32
r 0.13256 1 35 tcp 40 ------- 1 15.0 35.0 0 13
+ 0.13256 35 1 ack 40 ------- 1 35.0 15.0 0 33
- 0.13256 35 1 ack 40 ------- 1 35.0 15.0 0 33
r 0.13272 1 36 tcp 40 ------- 1 16.0 36.0 0 14
+ 0.13272 36 1 ack 40 ------- 1 36.0 16.0 0 34
- 0.13272 36 1 ack 40 ------- 1 36.0 16.0 0 34
r 0.13288 1 37 tcp 40 ------- 1 17.0 37.0 0 15
+ 0.13288 37 1 ack 40 ------- 1 37.0 17.0 0 35
- 0.13288 37 1 ack 40 ------- 1 37.0 17.0 0 35
r 0.13304 1 38 tcp 40 ------- 1 18.0 38.0 0 16
+ 0.13304 38 1 ack 40 ------- 1 38.0 18.0 0 36
- 0.13304 38 1 ack 40 ------- 1 38.0 18.0 0 36
r 0.1332 1 39 tcp 40 ------- 1 19.0 39.0 0 17
+ 0.1332 39 1 ack 40 ------- 1 39.0 19.0 0 37
- 0.1332 39 1 ack 40 ------- 1 39.0 19.0 0 37
r 0.13336 1 40 tcp 40 ------- 1 20.0 40.0 0 18
+ 0.13336 40 1 ack 40 ------- 1 40.0 20.0 0 38
- 0.13336 40 1 ack 40 ------- 1 40.0 20.0 0 38
r 0.13352 1 41 tcp 40 ------- 1 21.0 41.0 0 19
+ 0.13352 41 1 ack 40 ------- 1 41.0 21.0 0 39
- 0.13352 41 1 ack 40 ------- 1 41.0 21.0 0 39
r 0.14064 22 1 ack 40 ------- 1 22.0 2.0 0 20
+ 0.14064 1 0 ack 40 ------- 1 22.0 2.0 0 20
- 0.14064 1 0 ack 40 ------- 1 22.0 2.0 0 20
r 0.1408 23 1 ack 40 ------- 1 23.0 3.0 0 21
+ 0.1408 1 0 ack 40 ------- 1 23.0 3.0 0 21
- 0.1408 1 0 ack 40 ------- 1 23.0 3.0 0 21
r 0.14096 24 1 ack 40 ------- 1 24.0 4.0 0 22
+ 0.14096 1 0 ack 40 ------- 1 24.0 4.0 0 22
- 0.14096 1 0 ack 40 ------- 1 24.0 4.0 0 22
r 0.14112 25 1 ack 40 ------- 1 25.0 5.0 0 23
+ 0.14112 1 0 ack 40 ------- 1 25.0 5.0 0 23
- 0.14112 1 0 ack 40 ------- 1 25.0 5.0 0 23
r 0.14128 26 1 ack 40 ------- 1 26.0 6.0 0 24
+ 0.14128 1 0 ack 40 ------- 1 26.0 6.0 0 24
- 0.14128 1 0 ack 40 ------- 1 26.0 6.0 0 24
r 0.14144 27 1 ack 40 ------- 1 27.0 7.0 0 25
+ 0.14144 1 0 ack 40 ------- 1 27.0 7.0 0 25
- 0.14144 1 0 ack 40 ------- 1 27.0 7.0 0 25
r 0.1416 28 1 ack 40 ------- 1 28.0 8.0 0 26
+ 0.1416 1 0 ack 40 ------- 1 28.0 8.0 0 26
- 0.1416 1 0 ack 40 ------- 1 28.0 8.0 0 26
r 0.14176 29 1 ack 40 ------- 1 29.0 9.0 0 27
+ 0.14176 1 0 ack 40 ------- 1 29.0 9.0 0 27
- 0.14176 1 0 ack 40 ------- 1 29.0 9.0 0 27
r 0.14192 30 1 ack 40 ------- 1 30.0 10.0 0 28
+ 0.14192 1 0 ack 40 ------- 1 30.0 10.0 0 28
- 0.14192 1 0 ack 40 ------- 1 30.0 10.0 0 28
r 0.14208 31 1 ack 40 ------- 1 31.0 11.0 0 29
+ 0.14208 1 0 ack 40 ------- 1 31.0 11.0 0 29
- 0.14208 1 0 ack 40 ------- 1 31.0 11.0 0 29
r 0.14224 32 1 ack 40 ------- 1 32.0 12.0 0 30
+ 0.14224 1 0 ack 40 ------- 1 32.0 12.0 0 30
- 0.14224 1 0 ack 40 ------- 1 32.0 12.0 0 30
r 0.1424 33 1 ack 40 ------- 1 33.0 13.0 0 31
+ 0.1424 1 0 ack 40 ------- 1 33.0 13.0 0 31
- 0.1424 1 0 ack 40 ------- 1 33.0 13.0 0 31
r 0.14256 34 1 ack 40 ------- 1 34.0 14.0 0 32
+ 0.14256 1 0 ack 40 ------- 1 34.0 14.0 0 32
- 0.14256 1 0 ack 40 ------- 1 34.0 14.0 0 32
r 0.14272 35 1 ack 40 ------- 1 35.0 15.0 0 33
+ 0.14272 1 0 ack 40 ------- 1 35.0 15.0 0 33
- 0.14272 1 0 ack 40 ------- 1 35.0 15.0 0 33
r 0.14288 36 1 ack 40 ------- 1 36.0 16.0 0 34
+ 0.14288 1 0 ack 40 ------- 1 36.0 16.0 0 34
- 0.14288 1 0 ack 40 ------- 1 36.0 16.0 0 34
r 0.14304 37 1 ack 40 ------- 1 37.0 17.0 0 35
+ 0.14304 1 0 ack 40 ------- 1 37.0 17.0 0 35
- 0.14304 1 0 ack 40 ------- 1 37.0 17.0 0 35
r 0.1432 38 1 ack 40 ------- 1 38.0 18.0 0 36
+ 0.1432 1 0 ack 40 ------- 1 38.0 18.0 0 36
- 0.1432 1 0 ack 40 ------- 1 38.0 18.0 0 36
r 0.14336 39 1 ack 40 ------- 1 39.0 19.0 0 37
+ 0.14336 1 0 ack 40 ------- 1 39.0 19.0 0 37
- 0.14336 1 0 ack 40 ------- 1 39.0 19.0 0 37
r 0.14352 40 1 ack 40 ------- 1 40.0 20.0 0 38
+ 0.14352 1 0 ack 40 ------- 1 40.0 20.0 0 38
- 0.14352 1 0 ack 40 ------- 1 40.0 20.0 0 38
r 0.14368 41 1 ack 40 ------- 1 41.0 21.0 0 39
+ 0.14368 1 0 ack 40 ------- 1 41.0 21.0 0 39
- 0.14368 1 0 ack 40 ------- 1 41.0 21.0 0 39
r 0.1508 1 0 ack 40 ------- 1 22.0 2.0 0 20
+ 0.1508 0 2 ack 40 ------- 1 22.0 2.0 0 20
- 0.1508 0 2 ack 40 ------- 1 22.0 2.0 0 20
r 0.15096 1 0 ack 40 ------- 1 23.0 3.0 0 21
+ 0.15096 0 3 ack 40 ------- 1 23.0 3.0 0 21
- 0.15096 0 3 ack 40 ------- 1 23.0 3.0 0 21
r 0.15112 1 0 ack 40 ------- 1 24.0 4.0 0 22
+ 0.15112 0 4 ack 40 ------- 1 24.0 4.0 0 22
- 0.15112 0 4 ack 40 ------- 1 24.0 4.0 0 22
r 0.15128 1 0 ack 40 ------- 1 25.0 5.0 0 23
+ 0.15128 0 5 ack 40 ------- 1 25.0 5.0 0 23
- 0.15128 0 5 ack 40 ------- 1 25.0 5.0 0 23
r 0.15144 1 0 ack 40 ------- 1 26.0 6.0 0 24
+ 0.15144 0 6 ack 40 ------- 1 26.0 6.0 0 24
- 0.15144 0 6 ack 40 ------- 1 26.0 6.0 0 24
r 0.1516 1 0 ack 40 ------- 1 27.0 7.0 0 25
+ 0.1516 0 7 ack 40 ------- 1 27.0 7.0 0 25
- 0.1516 0 7 ack 40 ------- 1 27.0 7.0 0 25
r 0.15176 1 0 ack 40 ------- 1 28.0 8.0 0 26
+ 0.15176 0 8 ack 40 ------- 1 28.0 8.0 0 26
- 0.15176 0 8 ack 40 ------- 1 28.0 8.0 0 26
r 0.15192 1 0 ack 40 ------- 1 29.0 9.0 0 27
+ 0.15192 0 9 ack 40 ------- 1 29.0 9.0 0 27
- 0.15192 0 9 ack 40 ------- 1 29.0 9.0 0 27
r 0.15208 1 0 ack 40 ------- 1 30.0 10.0 0 28
+ 0.15208 0 10 ack 40 ------- 1 30.0 10.0 0 28
- 0.15208 0 10 ack 40 ------- 1 30.0 10.0 0 28
r 0.15224 1 0 ack 40 ------- 1 31.0 11.0 0 29
+ 0.15224 0 11 ack 40 ------- 1 31.0 11.0 0 29
- 0.15224 0 11 ack 40 ------- 1 31.0 11.0 0 29
r 0.1524 1 0 ack 40 ------- 1 32.0 12.0 0 30
+ 0.1524 0 12 ack 40 ------- 1 32.0 12.0 0 30
- 0.1524 0 12 ack 40 ------- 1 32.0 12.0 0 30
r 0.15256 1 0 ack 40 ------- 1 33.0 13.0 0 31
+ 0.15256 0 13 ack 40 ------- 1 33.0 13.0 0 31
- 0.15256 0 13 ack 40 ------- 1 33.0 13.0 0 31
r 0.15272 1 0 ack 40 ------- 1 34.0 14.0 0 32
+ 0.15272 0 14 ack 40 ------- 1 34.0 14.0 0 32
- 0.15272 0 14 ack 40 ------- 1 34.0 14.0 0 32
r 0.15288 1 0 ack 40 ------- 1 35.0 15.0 0 33
+ 0.15288 0 15 ack 40 ------- 1 35.0 15.0 0 33
- 0.15288 0 15 ack 40 ------- 1 35.0 15.0 0 33
r 0.15304 1 0 ack 40 ------- 1 36.0 16.0 0 34
+ 0.15304 0 16 ack 40 ------- 1 36.0 16.0 0 34
- 0.15304 0 16 ack 40 ------- 1 36.0 16.0 0 34
r 0.1532 1 0 ack 40 ------- 1 37.0 17.0 0 35
+ 0.1532 0 17 ack 40 ------- 1 37.0 17.0 0 35
- 0.1532 0 17 ack 40 ------- 1 37.0 17.0 0 35
r 0.15336 1 0 ack 40 ------- 1 38.0 18.0 0 36
+ 0.15336 0 18 ack 40 ------- 1 38.0 18.0 0 36
- 0.15336 0 18 ack 40 ------- 1 38.0 18.0 0 36
r 0.15352 1 0 ack 40 ------- 1 39.0 19.0 0 37
+ 0.15352 0 19 ack 40 ------- 1 39.0 19.0 0 37
- 0.15352 0 19 ack 40 ------- 1 39.0 19.0 0 37
r 0.15368 1 0 ack 40 ------- 1 40.0 20.0 0 38
+ 0.15368 0 20 ack 40 ------- 1 40.0 20.0 0 38
- 0.15368 0 20 ack 40 ------- 1 40.0 20.0 0 38
r 0.15384 1 0 ack 40 ------- 1 41.0 21.0 0 39
+ 0.15384 0 21 ack 40 ------- 1 41.0 21.0 0 39
- 0.15384 0 21 ack 40 ------- 1 41.0 21.0 0 39
r 0.16096 0 2 ack 40 ------- 1 22.0 2.0 0 20
+ 0.16096 2 0 tcp 1040 ------- 1 2.0 22.0 1 40
- 0.16096 2 0 tcp 1040 ------- 1 2.0 22.0 1 40
+ 0.16096 2 0 tcp 1040 ------- 1 2.0 22.0 2 41
r 0.16112 0 3 ack 40 ------- 1 23.0 3.0 0 21
+ 0.16112 3 0 tcp 1040 ------- 1 3.0 23.0 1 42
- 0.16112 3 0 tcp 1040 ------- 1 3.0 23.0 1 42
+ 0.16112 3 0 tcp 1040 ------- 1 3.0 23.0 2 43
r 0.16128 0 4 ack 40 ------- 1 24.0 4.0 0 22
+ 0.16128 4 0 tcp 1040 ------- 1 4.0 24.0 1 44
- 0.16128 4 0 tcp 1040 ------- 1 4.0 24.0 1 44
+ 0.16128 4 0 tcp 1040 ------- 1 4.0 24.0 2 45
r 0.16144 0 5 ack 40 ------- 1 25.0 5.0 0 23
+ 0.16144 5 0 tcp 1040 ------- 1 5.0 25.0 1 46
- 0.16144 5 0 tcp 1040 ------- 1 5.0 25.0 1 46
+ 0.16144 5 0 tcp 1040 ------- 1 5.0 25.0 2 47
r 0.1616 0 6 ack 40 ------- 1 26.0 6.0 0 24
+ 0.1616 6 0 tcp 1040 ------- 1 6.0 26.0 1 48
- 0.1616 6 0 tcp 1040 ------- 1 6.0 26.0 1 48
+ 0.1616 6 0 tcp 1040 ------- 1 6.0 26.0 2 49
r 0.16176 0 7 ack 40 ------- 1 27.0 7.0 0 25
+ 0.16176 7 0 tcp 1040 ------- 1 7.0 27.0 1 50
- 0.16176 7 0 tcp 1040 ------- 1 7.0 27.0 1 50
+ 0.16176 7 0 tcp 1040 ------- 1 7.0 27.0 2 51
r 0.16192 0 8 ack 40 ------- 1 28.0 8.0 0 26
+ 0.16192 8 0 tcp 1040 ------- 1 8.0 28.0 1 52
- 0.16192 8 0 tcp 1040 ------- 1 8.0 28.0 1 52
+ 0.16192 8 0 tcp 1040 ------- 1 8.0 28.0 2 53
r 0.16208 0 9 ack 40 ------- 1 29.0 9.0 0 27
+ 0.16208 9 0 tcp 1040 ------- 1 9.0 29.0 1 54
- 0.16208 9 0 tcp 1040 ------- 1 9.0 29.0 1 54
+ 0.16208 9 0 tcp 1040 ------- 1 9.0 29.0 2 55
r 0.16224 0 10 ack 40 ------- 1 30.0 10.0 0 28
+ 0.16224 10 0 tcp 1040 ------- 1 10.0 30.0 1 56
- 0.16224 10 0 tcp 1040 ------- 1 10.0 30.0 1 56
+ 0.16224 10 0 tcp 1040 ------- 1 10.0 30.0 2 57
r 0.1624 0 11 ack 40 ------- 1 31.0 11.0 0 29
+ 0.1624 11 0 tcp 1040 ------- 1 11.0 31.0 1 58
- 0.1624 11 0 tcp 1040 ------- 1 11.0 31.0 1 58
+ 0.1624 11 0 tcp 1040 ------- 1 11.0 31.0 2 59
r 0.16256 0 12 ack 40 ------- 1 32.0 12.0 0 30
+ 0.16256 12 0 tcp 1040 ------- 1 12.0 32.0 1 60
- 0.16256 12 0 tcp 1040 ------- 1 12.0 32.0 1 60
+ 0.16256 12 0 tcp 1040 ------- 1 12.0 32.0 2 61
r 0.16272 0 13 ack 40 ------- 1 33.0 13.0 0 31
+ 0.16272 13 0 tcp 1040 ------- 1 13.0 33.0 1 62
- 0.16272 13 0 tcp 1040 ------- 1 13.0 33.0 1 62
+ 0.16272 13 0 tcp 1040 ------- 1 13.0 33.0 2 63
r 0.16288 0 14 ack 40 ------- 1 34.0 14.0 0 32
+ 0.16288 14 0 tcp 1040 ------- 1 14.0 34.0 1 64
- 0.16288 14 0 tcp 1040 ------- 1 14.0 34.0 1 64
+ 0.16288 14 0 tcp 1040 ------- 1 14.0 34.0 2 65
r 0.16304 0 15 ack 40 ------- 1 35.0 15.0 0 33
+ 0.16304 15 0 tcp 1040 ------- 1 15.0 35.0 1 66
- 0.16304 15 0 tcp 1040 ------- 1 15.0 35.0 1 66
+ 0.16304 15 0 tcp 1040 ------- 1 15.0 35.0 2 67
r 0.1632 0 16 ack 40 ------- 1 36.0 16.0 0 34
+ 0.1632 16 0 tcp 1040 ------- 1 16.0 36.0 1 68
- 0.1632 16 0 tcp 1040 ------- 1 16.0 36.0 1 68
+ 0.1632 16 0 tcp 1040 ------- 1 16.0 36.0 2 69
r 0.16336 0 17 ack 40 ------- 1 37.0 17.0 0 35
+ 0.16336 17 0 tcp 1040 ------- 1 17.0 37.0 1 70
- 0.16336 17 0 tcp 1040 ------- 1 17.0 37.0 1 70
+ 0.16336 17 0 tcp 1040 ------- 1 17.0 37.0 2 71
r 0.16352 0 18 ack 40 ------- 1 38.0 18.0 0 36
+ 0.16352 18 0 tcp 1040 ------- 1 18.0 38.0 1 72
- 0.16352 18 0 tcp 1040 ------- 1 18.0 38.0 1 72
+ 0.16352 18 0 tcp 1040 ------- 1 18.0 38.0 2 73
r 0.16368 0 19 ack 40 ------- 1 39.0 19.0 0 37
+ 0.16368 19 0 tcp 1040 ------- 1 19.0 39.0 1 74
- 0.16368 19 0 tcp 1040 ------- 1 19.0 39.0 1 74
+ 0.16368 19 0 tcp 1040 ------- 1 19.0 39.0 2 75
r 0.16384 0 20 ack 40 ------- 1 40.0 20.0 0 38
+ 0.16384 20 0 tcp 1040 ------- 1 20.0 40.0 1 76
- 0.16384 20 0 tcp 1040 ------- 1 20.0 40.0 1 76
+ 0.16384 20 0 tcp 1040 ------- 1 20.0 40.0 2 77
r 0.164 0 21 ack 40 ------- 1 41.0 21.0 0 39
+ 0.164 21 0 tcp 1040 ------- 1 21.0 41.0 1 78
- 0.164 21 0 tcp 1040 ------- 1 21.0 41.0 1 78
+ 0.164 21 0 tcp 1040 ------- 1 21.0 41.0 2 79
- 0.16512 2 0 tcp 1040 ------- 1 2.0 22.0 2 41
- 0.16528 3 0 tcp 1040 ------- 1 3.0 23.0 2 43
- 0.16544 4 0 tcp 1040 ------- 1 4.0 24.0 2 45
- 0.1656 5 0 tcp 1040 ------- 1 5.0 25.0 2 47
- 0.16576 6 0 tcp 1040 ------- 1 6.0 26.0 2 49
- 0.16592 7 0 tcp 1040 ------- 1 7.0 27.0 2 51
- 0.16608 8 0 tcp 1040 ------- 1 8.0 28.0 2 53
- 0.16624 9 0 tcp 1040 ------- 1 9.0 29.0 2 55
- 0.1664 10 0 tcp 1040 ------- 1 10.0 30.0 2 57
- 0.16656 11 0 tcp 1040 ------- 1 11.0 31.0 2 59
- 0.16672 12 0 tcp 1040 ------- 1 12.0 32.0 2 61
- 0.16688 13 0 tcp 1040 ------- 1 13.0 33.0 2 63
- 0.16704 14 0 tcp 1040 ------- 1 14.0 34.0 2 65
- 0.1672 15 0 tcp 1040 ------- 1 15.0 35.0 2 67
- 0.16736 16 0 tcp 1040 ------- 1 16.0 36.0 2 69
- 0.16752 17 0 tcp 1040 ------- 1 17.0 37.0 2 71
- 0.16768 18 0 tcp 1040 ------- 1 18.0 38.0 2 73
- 0.16784 19 0 tcp 1040 ------- 1 19.0 39.0 2 75
- 0.168 20 0 tcp 1040 ------- 1 20.0 40.0 2 77
- 0.16816 21 0 tcp 1040 ------- 1 21.0 41.0 2 79
r 0.17512 2 0 tcp 1040 ------- 1 2.0 22.0 1 40
+ 0.17512 0 1 tcp 1040 ------- 1 2.0 22.0 1 40
- 0.17512 0 1 tcp 1040 ------- 1 2.0 22.0 1 40
r 0.17528 3 0 tcp 1040 ------- 1 3.0 23.0 1 42
+ 0.17528 0 1 tcp 1040 ------- 1 3.0 23.0 1 42
r 0.17544 4 0 tcp 1040 ------- 1 4.0 24.0 1 44
+ 0.17544 0 1 tcp 1040 ------- 1 4.0 24.0 1 44
r 0.1756 5 0 tcp 1040 ------- 1 5.0 25.0 1 46
+ 0.1756 0 1 tcp 1040 ------- 1 5.0 25.0 1 46
r 0.17576 6 0 tcp 1040 ------- 1 6.0 26.0 1 48
+ 0.17576 0 1 tcp 1040 ------- 1 6.0 26.0 1 48
r 0.17592 7 0 tcp 1040 ------- 1 7.0 27.0 1 50
+ 0.17592 0 1 tcp 1040 ------- 1 7.0 27.0 1 50
r 0.17608 8 0 tcp 1040 ------- 1 8.0 28.0 1 52
+ 0.17608 0 1 tcp 1040 ------- 1 8.0 28.0 1 52
r 0.17624 9 0 tcp 1040 ------- 1 9.0 29.0 1 54
+ 0.17624 0 1 tcp 1040 ------- 1 9.0 29.0 1 54
r 0.1764 10 0 tcp 1040 ------- 1 10.0 30.0 1 56
+ 0.1764 0 1 tcp 1040 ------- 1 10.0 30.0 1 56
r 0.17656 11 0 tcp 1040 ------- 1 11.0 31.0 1 58
+ 0.17656 0 1 tcp 1040 ------- 1 11.0 31.0 1 58
r 0.17672 12 0 tcp 1040 ------- 1 12.0 32.0 1 60
+ 0.17672 0 1 tcp 1040 ------- 1 12.0 32.0 1 60
r 0.17688 13 0 tcp 1040 ------- 1 13.0 33.0 1 62
+ 0.17688 0 1 tcp 1040 ------- 1 13.0 33.0 1 62
r 0.17704 14 0 tcp 1040 ------- 1 14.0 34.0 1 64
+ 0.17704 0 1 tcp 1040 ------- 1 14.0 34.0 1 64
r 0.1772 15 0 tcp 1040 ------- 1 15.0 35.0 1 66
+ 0.1772 0 1 tcp 1040 ------- 1 15.0 35.0 1 66
r 0.17736 16 0 tcp 1040 ------- 1 16.0 36.0 1 68
+ 0.17736 0 1 tcp 1040 ------- 1 16.0 36.0 1 68
r 0.17752 17 0 tcp 1040 ------- 1 17.0 37.0 1 70
+ 0.17752 0 1 tcp 1040 ------- 1 17.0 37.0 1 70
r 0.17768 18 0 tcp 1040 ------- 1 18.0 38.0 1 72
+ 0.17768 0 1 tcp 1040 ------- 1 18.0 38.0 1 72
r 0.17784 19 0 tcp 1040 ------- 1 19.0 39.0 1 74
+ 0.17784 0 1 tcp 1040 ------- 1 19.0 39.0 1 74
r 0.178 20 0 tcp 1040 ------- 1 20.0 40.0 1 76
+ 0.178 0 1 tcp 1040 ------- 1 20.0 40.0 1 76
r 0.17816 21 0 tcp 1040 ------- 1 21.0 41.0 1 78
+ 0.17816 0 1 tcp 1040 ------- 1 21.0 41.0 1 78
r 0.17928 2 0 tcp 1040 ------- 1 2.0 22.0 2 41
+ 0.17928 0 1 tcp 1040 ------- 1 2.0 22.0 2 41
- 0.17928 0 1 tcp 1040 ------- 1 3.0 23.0 1 42
r 0.17944 3 0 tcp 1040 ------- 1 3.0 23.0 2 43
+ 0.17944 0 1 tcp 1040 ------- 1 3.0 23.0 2 43
r 0.1796 4 0 tcp 1040 ------- 1 4.0 24.0 2 45
+ 0.1796 0 1 tcp 1040 ------- 1 4.0 24.0 2 45
d 0.1796 0 1 tcp 1040 ------- 1 4.0 24.0 2 45
r 0.17976 5 0 tcp 1040 ------- 1 5.0 25.0 2 47
+ 0.17976 0 1 tcp 1040 ------- 1 5.0 25.0 2 47
d 0.17976 0 1 tcp 1040 ------- 1 5.0 25.0 2 47
r 0.17992 6 0 tcp 1040 ------- 1 6.0 26.0 2 49
+ 0.17992 0 1 tcp 1040 ------- 1 6.0 26.0 2 49
d 0.17992 0 1 tcp 1040 ------- 1 6.0 26.0 2 49
r 0.18008 7 0 tcp 1040 ------- 1 7.0 27.0 2 51
+ 0.18008 0 1 tcp 1040 ------- 1 7.0 27.0 2 51
d 0.18008 0 1 tcp 1040 ------- 1 7.0 27.0 2 51
r 0.18024 8 0 tcp 1040 ------- 1 8.0 28.0 2 53
+ 0.18024 0 1 tcp 1040 ------- 1 8.0 28.0 2 53
d 0.18024 0 1 tcp 1040 ------- 1 8.0 28.0 2 53
r 0.1804 9 0 tcp 1040 ------- 1 9.0 29.0 2 55
+ 0.1804 0 1 tcp 1040 ------- 1 9.0 29.0 2 55
d 0.1804 0 1 tcp 1040 ------- 1 9.0 29.0 2 55
r 0.18056 10 0 tcp 1040 ------- 1 10.0 30.0 2 57
+ 0.18056 0 1 tcp 1040 ------- 1 10.0 30.0 2 57
d 0.18056 0 1 tcp 1040 ------- 1 10.0 30.0 2 57
r 0.18072 11 0 tcp 1040 ------- 1 11.0 31.0 2 59
+ 0.18072 0 1 tcp 1040 ------- 1 11.0 31.0 2 59
d 0.18072 0 1 tcp 1040 ------- 1 11.0 31.0 2 59
r 0.18088 12 0 tcp 1040 ------- 1 12.0 32.0 2 61
+ 0.18088 0 1 tcp 1040 ------- 1 12.0 32.0 2 61
d 0.18088 0 1 tcp 1040 ------- 1 12.0 32.0 2 61
r 0.18104 13 0 tcp 1040 ------- 1 13.0 33.0 2 63
+ 0.18104 0 1 tcp 1040 ------- 1 13.0 33.0 2 63
d 0.18104 0 1 tcp 1040 ------- 1 13.0 33.0 2 63
r 0.1812 14 0 tcp 1040 ------- 1 14.0 34.0 2 65
+ 0.1812 0 1 tcp 1040 ------- 1 14.0 34.0 2 65
d 0.1812 0 1 tcp 1040 ------- 1 14.0 34.0 2 65
r 0.18136 15 0 tcp 1040 ------- 1 15.0 35.0 2 67
+ 0.18136 0 1 tcp 1040 ------- 1 15.0 35.0 2 67
d 0.18136 0 1 tcp 1040 ------- 1 15.0 35.0 2 67
r 0.18152 16 0 tcp 1040 ------- 1 16.0 36.0 2 69
+ 0.18152 0 1 tcp 1040 ------- 1 16.0 36.0 2 69
d 0.18152 0 1 tcp 1040 ------- 1 16.0 36.0 2 69
r 0.18168 17 0 tcp 1040 ------- 1 17.0 37.0 2 71
+ 0.18168 0 1 tcp 1040 ------- 1 17.0 37.0 2 71
d 0.18168 0 1 tcp 1040 ------- 1 17.0 37.0 2 71
r 0.18184 18 0 tcp 1040 ------- 1 18.0 38.0 2 73
+ 0.18184 0 1 tcp 1040 ------- 1 18.0 38.0 2 73
d 0.18184 0 1 tcp 1040 ------- 1 18.0 38.0 2 73
r 0.182 19 0 tcp 1040 ------- 1 19.0 39.0 2 75
+ 0.182 0 1 tcp 1040 ------- 1 19.0 39.0 2 75
d 0.182 0 1 tcp 1040 ------- 1 19.0 39.0 2 75
r 0.18216 20 0 tcp 1040 ------- 1 20.0 40.0 2 77
+ 0.18216 0 1 tcp 1040 ------- 1 20.0 40.0 2 77
d 0.18216 0 1 tcp 1040 ------- 1 20.0 40.0 2 77
r 0.18232 21 0 tcp 1040 ------- 1 21.0 41.0 2 79
+ 0.18232 0 1 tcp 1040 ------- 1 21.0 41.0 2 79
d 0.18232 0 1 tcp 1040 ------- 1 21.0 41.0 2 79
- 0.18344 0 1 tcp 1040 ------- 1 4.0 24.0 1 44
- 0.1876 0 1 tcp 1040 ------- 1 5.0 25.0 1 46
r 0.18928 0 1 tcp 1040 ------- 1 2.0 22.0 1 40
+ 0.18928 1 22 tcp 1040 ------- 1 2.0 22.0 1 40
- 0.18928 1 22 tcp 1040 ------- 1 2.0 22.0 1 40
- 0.19176 0 1 tcp 1040 ------- 1 6.0 26.0 1 48
r 0.19344 0 1 tcp 1040 ------- 1 3.0 23.0 1 42
+ 0.19344 1 23 tcp 1040 ------- 1 3.0 23.0 1 42
- 0.19344 1 23 tcp 1040 ------- 1 3.0 23.0 1 42
- 0.19592 0 1 tcp 1040 ------- 1 7.0 27.0 1 50
r 0.1976 0 1 tcp 1040 ------- 1 4.0 24.0 1 44
+ 0.1976 1 24 tcp 1040 ------- 1 4.0 24.0 1 44
- 0.1976 1 24 tcp 1040 ------- 1 4.0 24.0 1 44
- 0.20008 0 1 tcp 1040 ------- 1 8.0 28.0 1 52
r 0.20176 0 1 tcp 1040 ------- 1 5.0 25.0 1 46
+ 0.20176 1 25 tcp 1040 ------- 1 5.0 25.0 1 46
- 0.20176 1 25 tcp 1040 ------- 1 5.0 25.0 1 46
r 0.20344 1 22 tcp 1040 ------- 1 2.0 22.0 1 40
+ 0.20344 22 1 ack 40 ------- 1 22.0 2.0 1 80
- 0.20344 22 1 ack 40 ------- 1 22.0 2.0 1 80
- 0.20424 0 1 tcp 1040 ------- 1 9.0 29.0 1 54
r 0.20592 0 1 tcp 1040 ------- 1 6.0 26.0 1 48
+ 0.20592 1 26 tcp 1040 ------- 1 6.0 26.0 1 48
- 0.20592 1 26 tcp 1040 ------- 1 6.0 26.0 1 48
r 0.2076 1 23 tcp 1040 ------- 1 3.0 23.0 1 42
+ 0.2076 23 1 ack 40 ------- 1 23.0 3.0 1 81
- 0.2076 23 1 ack 40 ------- 1 23.0 3.0 1 81
- 0.2084 0 1 tcp 1040 ------- 1 10.0 30.0 1 56
r 0.21008 0 1 tcp 1040 ------- 1 7.0 27.0 1 50
+ 0.21008 1 27 tcp 1040 ------- 1 7.0 27.0 1 50
- 0.21008 1 27 tcp 1040 ------- 1 7.0 27.0 1 50
r 0.21176 1 24 tcp 1040 ------- 1 4.0 24.0 1 44
+ 0.21176 24 1 ack 40 ------- 1 24.0 4.0 1 82
- 0.21176 24 1 ack 40 ------- 1 24.0 4.0 1 82
- 0.21256 0 1 tcp 1040 ------- 1 11.0 31.0 1 58
r 0.2136 22 1 ack 40 ------- 1 22.0 2.0 1 80
+ 0.2136 1 0 ack 40 ------- 1 22.0 2.0 1 80
- 0.2136 1 0 ack 40 ------- 1 22.0 2.0 1 80
r 0.21424 0 1 tcp 1040 ------- 1 8.0 28.0 1 52
+ 0.21424 1 28 tcp 1040 ------- 1 8.0 28.0 1 52
- 0.21424 1 28 tcp 1040 ------- 1 8.0 28.0 1 52
r 0.21592 1 25 tcp 1040 ------- 1 5.0 25.0 1 46
+ 0.21592 25 1 ack 40 ------- 1 25.0 5.0 1 83
- 0.21592 25 1 ack 40 ------- 1 25.0 5.0 1 83
- 0.21672 0 1 tcp 1040 ------- 1 12.0 32.0 1 60
r 0.21776 23 1 ack 40 ------- 1 23.0 3.0 1 81
+ 0.21776 1 0 ack 40 ------- 1 23.0 3.0 1 81
- 0.21776 1 0 ack 40 ------- 1 23.0 3.0 1 81
r 0.2184 0 1 tcp 1040 ------- 1 9.0 29.0 1 54
+ 0.2184 1 29 tcp 1040 ------- 1 9.0 29.0 1 54
- 0.2184 1 29 tcp 1040 ------- 1 9.0 29.0 1 54
r 0.22008 1 26 tcp 1040 ------- 1 6.0 26.0 1 48
+ 0.22008 26 1 ack 40 ------- 1 26.0 6.0 1 84
- 0.22008 26 1 ack 40 ------- 1 26.0 6.0 1 84
- 0.22088 0 1 tcp 1040 ------- 1 13.0 33.0 1 62
r 0.22192 24 1 ack 40 ------- 1 24.0 4.0 1 82
+ 0.22192 1 0 ack 40 ------- 1 24.0 4.0 1 82
- 0.22192 1 0 ack 40 ------- 1 24.0 4.0 1 82
r 0.22256 0 1 tcp 1040 ------- 1 10.0 30.0 1 56
+ 0.22256 1 30 tcp 1040 ------- 1 10.0 30.0 1 56
- 0.22256 1 30 tcp 1040 ------- 1 10.0 30.0 1 56
r 0.22376 1 0 ack 40 ------- 1 22.0 2.0 1 80
+ 0.22376 0 2 ack 40 ------- 1 22.0 2.0 1 80
- 0.22376 0 2 ack 40 ------- 1 22.0 2.0 1 80
r 0.22424 1 27 tcp 1040 ------- 1 7.0 27.0 1 50
+ 0.22424 27 1 ack 40 ------- 1 27.0 7.0 1 85
- 0.22424 27 1 ack 40 ------- 1 27.0 7.0 1 85
- 0.22504 0 1 tcp 1040 ------- 1 14.0 34.0 1 64
r 0.22608 25 1 ack 40 ------- 1 25.0 5.0 1 83
+ 0.22608 1 0 ack 40 ------- 1 25.0 5.0 1 83
- 0.22608 1 0 ack 40 ------- 1 25.0 5.0 1 83
r 0.22672 0 1 tcp 1040 ------- 1 11.0 31.0 1 58
+ 0.22672 1 31 tcp 1040 ------- 1 11.0 31.0 1 58
- 0.22672 1 31 tcp 1040 ------- 1 11.0 31.0 1 58
r 0.22792 1 0 ack 40 ------- 1 23.0 3.0 1 81
+ 0.22792 0 3 ack 40 ------- 1 23.0 3.0 1 81
- 0.22792 0 3 ack 40 ------- 1 23.0 3.0 1 81
r 0.2284 1 28 tcp 1040 ------- 1 8.0 28.0 1 52
+ 0.2284 28 1 ack 40 ------- 1 28.0 8.0 1 86
- 0.2284 28 1 ack 40 ------- 1 28.0 8.0 1 86
- 0.2292 0 1 tcp 1040 ------- 1 15.0 35.0 1 66
r 0.23024 26 1 ack 40 ------- 1 26.0 6.0 1 84
+ 0.23024 1 0 ack 40 ------- 1 26.0 6.0 1 84
- 0.23024 1 0 ack 40 ------- 1 26.0 6.0 1 84
r 0.23088 0 1 tcp 1040 ------- 1 12.0 32.0 1 60
+ 0.23088 1 32 tcp 1040 ------- 1 12.0 32.0 1 60
- 0.23088 1 32 tcp 1040 ------- 1 12.0 32.0 1 60
r 0.23208 1 0 ack 40 ------- 1 24.0 4.0 1 82
+ 0.23208 0 4 ack 40 ------- 1 24.0 4.0 1 82
- 0.23208 0 4 ack 40 ------- 1 24.0 4.0 1 82
r 0.23256 1 29 tcp 1040 ------- 1 9.0 29.0 1 54
+ 0.23256 29 1 ack 40 ------- 1 29.0 9.0 1 87
- 0.23256 29 1 ack 40 ------- 1 29.0 9.0 1 87
- 0.23336 0 1 tcp 1040 ------- 1 16.0 36.0 1 68
r 0.23392 0 2 ack 40 ------- 1 22.0 2.0 1 80
+ 0.23392 2 0 tcp 1040 ------- 1 2.0 22.0 3 88
- 0.23392 2 0 tcp 1040 ------- 1 2.0 22.0 3 88
+ 0.23392 2 0 tcp 1040 ------- 1 2.0 22.0 4 89
r 0.2344 27 1 ack 40 ------- 1 27.0 7.0 1 85
+ 0.2344 1 0 ack 40 ------- 1 27.0 7.0 1 85
- 0.2344 1 0 ack 40 ------- 1 27.0 7.0 1 85
r 0.23504 0 1 tcp 1040 ------- 1 13.0 33.0 1 62
+ 0.23504 1 33 tcp 1040 ------- 1 13.0 33.0 1 62
- 0.23504 1 33 tcp 1040 ------- 1 13.0 33.0 1 62
r 0.23624 1 0 ack 40 ------- 1 25.0 5.0 1 83
+ 0.23624 0 5 ack 40 ------- 1 25.0 5.0 1 83
- 0.23624 0 5 ack 40 ------- 1 25.0 5.0 1 83
r 0.23672 1 30 tcp 1040 ------- 1 10.0 30.0 1 56
+ 0.23672 30 1 ack 40 ------- 1 30.0 10.0 1 90