# nam4wpan #
n -t * -s 0  -x 0 -y 0 -Z 0 -z 20  -v circle -c black
n -t * -s 1  -x 0 -y 20 -Z 0 -z 20  -v circle -c black
n -t * -s 2  -x 0 -y 40 -Z 0 -z 20  -v circle -c black
n -t * -s 3  -x 0 -y 60 -Z 0 -z 20  -v circle -c black
n -t * -s 4  -x 0 -y 80 -Z 0 -z 20  -v circle -c black
n -t * -s 5  -x 20 -y 0 -Z 0 -z 20  -v circle -c black
n -t * -s 6  -x 20 -y 20 -Z 0 -z 20  -v circle -c black
n -t * -s 7  -x 20 -y 40 -Z 0 -z 20  -v circle -c black
n -t * -s 8  -x 20 -y 60 -Z 0 -z 20  -v circle -c black
n -t * -s 9  -x 20 -y 80 -Z 0 -z 20  -v circle -c black
n -t * -s 10  -x 40 -y 0 -Z 0 -z 20  -v circle -c black
n -t * -s 11  -x 40 -y 20 -Z 0 -z 20  -v circle -c black
n -t * -s 12  -x 40 -y 40 -Z 0 -z 20  -v circle -c black
n -t * -s 13  -x 40 -y 60 -Z 0 -z 20  -v circle -c black
n -t * -s 14  -x 40 -y 80 -Z 0 -z 20  -v circle -c black
n -t * -s 15  -x 60 -y 0 -Z 0 -z 20  -v circle -c black
n -t * -s 16  -x 60 -y 20 -Z 0 -z 20  -v circle -c black
n -t * -s 17  -x 60 -y 40 -Z 0 -z 20  -v circle -c black
n -t * -s 18  -x 60 -y 60 -Z 0 -z 20  -v circle -c black
n -t * -s 19  -x 60 -y 80 -Z 0 -z 20  -v circle -c black
n -t * -s 20  -x 80 -y 0 -Z 0 -z 20  -v circle -c black
n -t * -s 21  -x 80 -y 20 -Z 0 -z 20  -v circle -c black
n -t * -s 22  -x 80 -y 40 -Z 0 -z 20  -v circle -c black
n -t * -s 23  -x 80 -y 60 -Z 0 -z 20  -v circle -c black
n -t * -s 24  -x 80 -y 80 -Z 0 -z 20  -v circle -c black
n -t * -s 25  -x 100 -y 0 -Z 0 -z 20  -v circle -c black
n -t * -s 26  -x 100 -y 20 -Z 0 -z 20  -v circle -c black
n -t * -s 27  -x 100 -y 40 -Z 0 -z 20  -v circle -c black
n -t * -s 28  -x 100 -y 60 -Z 0 -z 20  -v circle -c black
n -t * -s 29  -x 100 -y 80 -Z 0 -z 20  -v circle -c black
n -t * -s 30  -x 120 -y 0 -Z 0 -z 20  -v circle -c black
n -t * -s 31  -x 120 -y 20 -Z 0 -z 20  -v circle -c black
n -t * -s 32  -x 120 -y 40 -Z 0 -z 20  -v circle -c black
n -t * -s 33  -x 120 -y 60 -Z 0 -z 20  -v circle -c black
n -t * -s 34  -x 120 -y 80 -Z 0 -z 20  -v circle -c black
n -t * -s 35  -x 140 -y 0 -Z 0 -z 20  -v circle -c black
n -t * -s 36  -x 140 -y 20 -Z 0 -z 20  -v circle -c black
n -t * -s 37  -x 140 -y 40 -Z 0 -z 20  -v circle -c black
n -t * -s 38  -x 140 -y 60 -Z 0 -z 20  -v circle -c black
n -t * -s 39  -x 140 -y 80 -Z 0 -z 20  -v circle -c black
V -t * -v 1.0a5 -a 0
W -t * -x 500 -y 500
A -t * -n 1 -p 0 -o 0x7fffffff -c 30 -a 1
A -t * -h 1 -m 1073741823 -s 0
+ -t 0.013650742 -s 10 -d -1 -p exp -e 64 -c 2 -a 0 -i 0 -k AGT 
- -t 0.013650742 -s 10 -d -1 -p exp -e 64 -c 2 -a 0 -i 0 -k AGT
h -t 0.013650742 -s 10 -d -1 -p exp -e 64 -c 2 -a 0 -i 0 -k AGT
+ -t 0.015709567 -s 10 -d -1 -p DSR -e 32 -c 2 -a 0 -i 1 -k RTR 
- -t 0.015709567 -s 10 -d -1 -p DSR -e 32 -c 2 -a 0 -i 1 -k RTR
h -t 0.015709567 -s 10 -d -1 -p DSR -e 32 -c 2 -a 0 -i 1 -k RTR -R 30.00 -D 0.00
+ -t 0.019182315 -s 19 -d -1 -p exp -e 64 -c 2 -a 0 -i 2 -k AGT 
- -t 0.019182315 -s 19 -d -1 -p exp -e 64 -c 2 -a 0 -i 2 -k AGT
h -t 0.019182315 -s 19 -d -1 -p exp -e 64 -c 2 -a 0 -i 2 -k AGT
+ -t 0.020253551 -s 39 -d -1 -p exp -e 64 -c 2 -a 0 -i 4 -k AGT 
- -t 0.020253551 -s 39 -d -1 -p exp -e 64 -c 2 -a 0 -i 4 -k AGT
h -t 0.020253551 -s 39 -d -1 -p exp -e 64 -c 2 -a 0 -i 4 -k AGT
+ -t 0.021829799 -s 19 -d -1 -p DSR -e 32 -c 2 -a 0 -i 3 -k RTR 
- -t 0.021829799 -s 19 -d -1 -p DSR -e 32 -c 2 -a 0 -i 3 -k RTR
h -t 0.021829799 -s 19 -d -1 -p DSR -e 32 -c 2 -a 0 -i 3 -k RTR -R 30.00 -D 0.00
+ -t 0.026807968 -s 39 -d -1 -p DSR -e 32 -c 2 -a 0 -i 5 -k RTR 
- -t 0.026807968 -s 39 -d -1 -p DSR -e 32 -c 2 -a 0 -i 5 -k RTR
h -t 0.026807968 -s 39 -d -1 -p DSR -e 32 -c 2 -a 0 -i 5 -k RTR -R 30.00 -D 0.00
+ -t 0.027488936 -s 23 -d 19 -p DSR -e 44 -c 2 -a 0 -i 6 -k RTR 
- -t 0.027488936 -s 23 -d 19 -p DSR -e 44 -c 2 -a 0 -i 6 -k RTR
h -t 0.027488936 -s 23 -d 19 -p DSR -e 44 -c 2 -a 0 -i 6 -k RTR
+ -t 0.027586010 -s 6 -d -1 -p exp -e 64 -c 2 -a 0 -i 7 -k AGT 
- -t 0.027586010 -s 6 -d -1 -p exp -e 64 -c 2 -a 0 -i 7 -k AGT
h -t 0.027586010 -s 6 -d -1 -p exp -e 64 -c 2 -a 0 -i 7 -k AGT
+ -t 0.028520339 -s 37 -d -1 -p exp -e 64 -c 2 -a 0 -i 9 -k AGT 
- -t 0.028520339 -s 37 -d -1 -p exp -e 64 -c 2 -a 0 -i 9 -k AGT
h -t 0.028520339 -s 37 -d -1 -p exp -e 64 -c 2 -a 0 -i 9 -k AGT
+ -t 0.028780168 -s 6 -d -1 -p DSR -e 32 -c 2 -a 0 -i 8 -k RTR 
- -t 0.028780168 -s 6 -d -1 -p DSR -e 32 -c 2 -a 0 -i 8 -k RTR
h -t 0.028780168 -s 6 -d -1 -p DSR -e 32 -c 2 -a 0 -i 8 -k RTR -R 30.00 -D 0.00
+ -t 0.029540305 -s 12 -d -1 -p exp -e 64 -c 2 -a 0 -i 11 -k AGT 
- -t 0.029540305 -s 12 -d -1 -p exp -e 64 -c 2 -a 0 -i 11 -k AGT
h -t 0.029540305 -s 12 -d -1 -p exp -e 64 -c 2 -a 0 -i 11 -k AGT
+ -t 0.030663713 -s 37 -d -1 -p DSR -e 32 -c 2 -a 0 -i 10 -k RTR 
- -t 0.030663713 -s 37 -d -1 -p DSR -e 32 -c 2 -a 0 -i 10 -k RTR
h -t 0.030663713 -s 37 -d -1 -p DSR -e 32 -c 2 -a 0 -i 10 -k RTR -R 30.00 -D 0.00
+ -t 0.033060312 -s 24 -d -1 -p exp -e 64 -c 2 -a 0 -i 14 -k AGT 
- -t 0.033060312 -s 24 -d -1 -p exp -e 64 -c 2 -a 0 -i 14 -k AGT
h -t 0.033060312 -s 24 -d -1 -p exp -e 64 -c 2 -a 0 -i 14 -k AGT
+ -t 0.033095593 -s 24 -d -1 -p DSR -e 32 -c 2 -a 0 -i 15 -k RTR 
- -t 0.033095593 -s 24 -d -1 -p DSR -e 32 -c 2 -a 0 -i 15 -k RTR
h -t 0.033095593 -s 24 -d -1 -p DSR -e 32 -c 2 -a 0 -i 15 -k RTR -R 30.00 -D 0.00
n -t 0.035360661 -s 19 -S COLOR -c gold -o black
+ -t 0.036623825 -s 12 -d -1 -p DSR -e 32 -c 2 -a 0 -i 12 -k RTR 
- -t 0.036623825 -s 12 -d -1 -p DSR -e 32 -c 2 -a 0 -i 12 -k RTR
h -t 0.036623825 -s 12 -d -1 -p DSR -e 32 -c 2 -a 0 -i 12 -k RTR -R 30.00 -D 0.00
n -t 0.036800661 -s 29 -S COLOR -c gold -o black
n -t 0.036800689 -s 18 -S COLOR -c gold -o black
n -t 0.036800689 -s 28 -S COLOR -c gold -o black
+ -t 0.039166247 -s 36 -d 37 -p DSR -e 44 -c 2 -a 0 -i 16 -k RTR 
- -t 0.039166247 -s 36 -d 37 -p DSR -e 44 -c 2 -a 0 -i 16 -k RTR
h -t 0.039166247 -s 36 -d 37 -p DSR -e 44 -c 2 -a 0 -i 16 -k RTR
+ -t 0.039957702 -s 3 -d -1 -p exp -e 64 -c 2 -a 0 -i 20 -k AGT 
- -t 0.039957702 -s 3 -d -1 -p exp -e 64 -c 2 -a 0 -i 20 -k AGT
h -t 0.039957702 -s 3 -d -1 -p exp -e 64 -c 2 -a 0 -i 20 -k AGT
n -t 0.040648893 -s 13 -S COLOR -c gold -o black
n -t 0.040648893 -s 17 -S COLOR -c gold -o black
n -t 0.040648921 -s 18 -S COLOR -c gold -o black
+ -t 0.044791051 -s 21 -d -1 -p exp -e 64 -c 2 -a 0 -i 24 -k AGT 
- -t 0.044791051 -s 21 -d -1 -p exp -e 64 -c 2 -a 0 -i 24 -k AGT
h -t 0.044791051 -s 21 -d -1 -p exp -e 64 -c 2 -a 0 -i 24 -k AGT
+ -t 0.045344618 -s 21 -d -1 -p DSR -e 32 -c 2 -a 0 -i 25 -k RTR 
- -t 0.045344618 -s 21 -d -1 -p DSR -e 32 -c 2 -a 0 -i 25 -k RTR
h -t 0.045344618 -s 21 -d -1 -p DSR -e 32 -c 2 -a 0 -i 25 -k RTR -R 30.00 -D 0.00
n -t 0.045360661 -s 19 -S COLOR -c grey -o gold
+ -t 0.045864604 -s 37 -d -1 -p exp -e 64 -c 2 -a 0 -i 26 -k AGT 
- -t 0.045864604 -s 37 -d -1 -p exp -e 64 -c 2 -a 0 -i 26 -k AGT
h -t 0.045864604 -s 37 -d -1 -p exp -e 64 -c 2 -a 0 -i 26 -k AGT
n -t 0.046800661 -s 29 -S COLOR -c grey -o gold
n -t 0.046800689 -s 18 -S COLOR -c grey -o gold
n -t 0.046800689 -s 28 -S COLOR -c grey -o gold
n -t 0.047129686 -s 22 -S COLOR -c gold -o black
n -t 0.047129713 -s 17 -S COLOR -c gold -o black
n -t 0.047129713 -s 27 -S COLOR -c gold -o black
+ -t 0.047332218 -s 19 -d 23 -p exp -e 100 -c 2 -a 0 -i 2 -k RTR 
- -t 0.047332218 -s 19 -d 23 -p exp -e 100 -c 2 -a 0 -i 2 -k RTR
h -t 0.047332218 -s 19 -d 23 -p exp -e 100 -c 2 -a 0 -i 2 -k RTR
+ -t 0.048940984 -s 3 -d -1 -p DSR -e 32 -c 2 -a 0 -i 21 -k RTR 
- -t 0.048940984 -s 3 -d -1 -p DSR -e 32 -c 2 -a 0 -i 21 -k RTR
h -t 0.048940984 -s 3 -d -1 -p DSR -e 32 -c 2 -a 0 -i 21 -k RTR -R 30.00 -D 0.00
n -t 0.050648893 -s 13 -S COLOR -c grey -o gold
n -t 0.050648893 -s 17 -S COLOR -c grey -o gold
n -t 0.050648921 -s 18 -S COLOR -c grey -o gold
+ -t 0.050822447 -s 37 -d 36 -p exp -e 100 -c 2 -a 0 -i 9 -k RTR 
- -t 0.050822447 -s 37 -d 36 -p exp -e 100 -c 2 -a 0 -i 9 -k RTR
h -t 0.050822447 -s 37 -d 36 -p exp -e 100 -c 2 -a 0 -i 9 -k RTR
r -t 0.052822313 -s 23 -d 23 -p exp -e 64 -c 2 -a 0 -i 2 -k AGT
n -t 0.055360661 -s 19 -S COLOR -c black -o grey
r -t 0.056632514 -s 36 -d 36 -p exp -e 64 -c 2 -a 0 -i 9 -k AGT
n -t 0.056800661 -s 29 -S COLOR -c black -o grey
n -t 0.056800689 -s 18 -S COLOR -c black -o grey
n -t 0.056800689 -s 28 -S COLOR -c black -o grey
n -t 0.057129686 -s 22 -S COLOR -c grey -o gold
n -t 0.057129713 -s 17 -S COLOR -c grey -o gold
n -t 0.057129713 -s 27 -S COLOR -c grey -o gold
n -t 0.060648893 -s 13 -S COLOR -c black -o grey
n -t 0.060648893 -s 17 -S COLOR -c black -o grey
n -t 0.060648921 -s 18 -S COLOR -c black -o grey
+ -t 0.064972919 -s 20 -d -1 -p exp -e 64 -c 2 -a 0 -i 30 -k AGT 
- -t 0.064972919 -s 20 -d -1 -p exp -e 64 -c 2 -a 0 -i 30 -k AGT
h -t 0.064972919 -s 20 -d -1 -p exp -e 64 -c 2 -a 0 -i 30 -k AGT
n -t 0.067129686 -s 22 -S COLOR -c black -o grey
n -t 0.067129713 -s 17 -S COLOR -c black -o grey
n -t 0.067129713 -s 27 -S COLOR -c black -o grey
+ -t 0.068262953 -s 20 -d -1 -p DSR -e 32 -c 2 -a 0 -i 31 -k RTR 
- -t 0.068262953 -s 20 -d -1 -p DSR -e 32 -c 2 -a 0 -i 31 -k RTR
h -t 0.068262953 -s 20 -d -1 -p DSR -e 32 -c 2 -a 0 -i 31 -k RTR -R 30.00 -D 0.00
+ -t 0.068711534 -s 19 -d -1 -p exp -e 64 -c 2 -a 0 -i 32 -k AGT 
- -t 0.068711534 -s 19 -d -1 -p exp -e 64 -c 2 -a 0 -i 32 -k AGT
h -t 0.068711534 -s 19 -d -1 -p exp -e 64 -c 2 -a 0 -i 32 -k AGT
+ -t 0.072680953 -s 6 -d -1 -p DSR -e 32 -c 2 -a 0 -i 34 -k RTR 
- -t 0.072680953 -s 6 -d -1 -p DSR -e 32 -c 2 -a 0 -i 34 -k RTR
h -t 0.072680953 -s 6 -d -1 -p DSR -e 32 -c 2 -a 0 -i 34 -k RTR -R 30.00 -D 0.00
+ -t 0.074284983 -s 24 -d -1 -p DSR -e 32 -c 2 -a 0 -i 37 -k RTR 
- -t 0.074284983 -s 24 -d -1 -p DSR -e 32 -c 2 -a 0 -i 37 -k RTR
h -t 0.074284983 -s 24 -d -1 -p DSR -e 32 -c 2 -a 0 -i 37 -k RTR -R 30.00 -D 0.00
+ -t 0.074302756 -s 10 -d -1 -p DSR -e 32 -c 2 -a 0 -i 36 -k RTR 
- -t 0.074302756 -s 10 -d -1 -p DSR -e 32 -c 2 -a 0 -i 36 -k RTR
h -t 0.074302756 -s 10 -d -1 -p DSR -e 32 -c 2 -a 0 -i 36 -k RTR -R 30.00 -D 0.00
+ -t 0.074378024 -s 12 -d -1 -p exp -e 64 -c 2 -a 0 -i 38 -k AGT 
- -t 0.074378024 -s 12 -d -1 -p exp -e 64 -c 2 -a 0 -i 38 -k AGT
h -t 0.074378024 -s 12 -d -1 -p exp -e 64 -c 2 -a 0 -i 38 -k AGT
+ -t 0.076432744 -s 19 -d -1 -p DSR -e 32 -c 2 -a 0 -i 33 -k RTR 
- -t 0.076432744 -s 19 -d -1 -p DSR -e 32 -c 2 -a 0 -i 33 -k RTR
h -t 0.076432744 -s 19 -d -1 -p DSR -e 32 -c 2 -a 0 -i 33 -k RTR -R 30.00 -D 0.00
+ -t 0.076789872 -s 39 -d -1 -p exp -e 64 -c 2 -a 0 -i 40 -k AGT 
- -t 0.076789872 -s 39 -d -1 -p exp -e 64 -c 2 -a 0 -i 40 -k AGT
h -t 0.076789872 -s 39 -d -1 -p exp -e 64 -c 2 -a 0 -i 40 -k AGT
+ -t 0.077682620 -s 12 -d -1 -p DSR -e 32 -c 2 -a 0 -i 35 -k RTR 
- -t 0.077682620 -s 12 -d -1 -p DSR -e 32 -c 2 -a 0 -i 35 -k RTR
h -t 0.077682620 -s 12 -d -1 -p DSR -e 32 -c 2 -a 0 -i 35 -k RTR -R 30.00 -D 0.00
+ -t 0.077849535 -s 19 -d -1 -p DSR -e 48 -c 2 -a 0 -i 37 -k RTR 
- -t 0.077849535 -s 19 -d -1 -p DSR -e 48 -c 2 -a 0 -i 37 -k RTR
h -t 0.077849535 -s 19 -d -1 -p DSR -e 48 -c 2 -a 0 -i 37 -k RTR -R 30.00 -D 0.00
+ -t 0.078080115 -s 39 -d -1 -p DSR -e 32 -c 2 -a 0 -i 41 -k RTR 
- -t 0.078080115 -s 39 -d -1 -p DSR -e 32 -c 2 -a 0 -i 41 -k RTR
h -t 0.078080115 -s 39 -d -1 -p DSR -e 32 -c 2 -a 0 -i 41 -k RTR -R 30.00 -D 0.00
+ -t 0.078129103 -s 18 -d -1 -p DSR -e 48 -c 2 -a 0 -i 37 -k RTR 
- -t 0.078129103 -s 18 -d -1 -p DSR -e 48 -c 2 -a 0 -i 37 -k RTR
h -t 0.078129103 -s 18 -d -1 -p DSR -e 48 -c 2 -a 0 -i 37 -k RTR -R 30.00 -D 0.00
+ -t 0.078136030 -s 12 -d -1 -p DSR -e 48 -c 2 -a 0 -i 34 -k RTR 
- -t 0.078136030 -s 12 -d -1 -p DSR -e 48 -c 2 -a 0 -i 34 -k RTR
h -t 0.078136030 -s 12 -d -1 -p DSR -e 48 -c 2 -a 0 -i 34 -k RTR -R 30.00 -D 0.00
+ -t 0.078221534 -s 2 -d -1 -p DSR -e 48 -c 2 -a 0 -i 34 -k RTR 
- -t 0.078221534 -s 2 -d -1 -p DSR -e 48 -c 2 -a 0 -i 34 -k RTR
h -t 0.078221534 -s 2 -d -1 -p DSR -e 48 -c 2 -a 0 -i 34 -k RTR -R 30.00 -D 0.00
+ -t 0.078352175 -s 11 -d -1 -p DSR -e 48 -c 2 -a 0 -i 34 -k RTR 
- -t 0.078352175 -s 11 -d -1 -p DSR -e 48 -c 2 -a 0 -i 34 -k RTR
h -t 0.078352175 -s 11 -d -1 -p DSR -e 48 -c 2 -a 0 -i 34 -k RTR -R 30.00 -D 0.00
n -t 0.079206602 -s 7 -S COLOR -c gold -o black
n -t 0.079206630 -s 6 -S COLOR -c gold -o black
n -t 0.079754170 -s 17 -S COLOR -c gold -o black
n -t 0.079754198 -s 12 -S COLOR -c gold -o black
+ -t 0.079948556 -s 1 -d -1 -p DSR -e 48 -c 2 -a 0 -i 34 -k RTR 
- -t 0.079948556 -s 1 -d -1 -p DSR -e 48 -c 2 -a 0 -i 34 -k RTR
h -t 0.079948556 -s 1 -d -1 -p DSR -e 48 -c 2 -a 0 -i 34 -k RTR -R 30.00 -D 0.00
+ -t 0.080822447 -s 37 -d 36 -p exp -e 100 -c 2 -a 0 -i 26 -k RTR 
- -t 0.080822447 -s 37 -d 36 -p exp -e 100 -c 2 -a 0 -i 26 -k RTR
h -t 0.080822447 -s 37 -d 36 -p exp -e 100 -c 2 -a 0 -i 26 -k RTR
+ -t 0.081093459 -s 7 -d -1 -p DSR -e 48 -c 2 -a 0 -i 34 -k RTR 
- -t 0.081093459 -s 7 -d -1 -p DSR -e 48 -c 2 -a 0 -i 34 -k RTR
h -t 0.081093459 -s 7 -d -1 -p DSR -e 48 -c 2 -a 0 -i 34 -k RTR -R 30.00 -D 0.00
+ -t 0.081803870 -s 23 -d -1 -p DSR -e 48 -c 2 -a 0 -i 37 -k RTR 
- -t 0.081803870 -s 23 -d -1 -p DSR -e 48 -c 2 -a 0 -i 37 -k RTR
h -t 0.081803870 -s 23 -d -1 -p DSR -e 48 -c 2 -a 0 -i 37 -k RTR -R 30.00 -D 0.00
+ -t 0.082063054 -s 5 -d -1 -p DSR -e 48 -c 2 -a 0 -i 34 -k RTR 
- -t 0.082063054 -s 5 -d -1 -p DSR -e 48 -c 2 -a 0 -i 34 -k RTR
h -t 0.082063054 -s 5 -d -1 -p DSR -e 48 -c 2 -a 0 -i 34 -k RTR -R 30.00 -D 0.00
+ -t 0.082128212 -s 0 -d -1 -p DSR -e 48 -c 2 -a 0 -i 34 -k RTR 
- -t 0.082128212 -s 0 -d -1 -p DSR -e 48 -c 2 -a 0 -i 34 -k RTR
h -t 0.082128212 -s 0 -d -1 -p DSR -e 48 -c 2 -a 0 -i 34 -k RTR -R 30.00 -D 0.00
+ -t 0.082218145 -s 10 -d -1 -p DSR -e 48 -c 2 -a 0 -i 34 -k RTR 
- -t 0.082218145 -s 10 -d -1 -p DSR -e 48 -c 2 -a 0 -i 34 -k RTR
h -t 0.082218145 -s 10 -d -1 -p DSR -e 48 -c 2 -a 0 -i 34 -k RTR -R 30.00 -D 0.00
+ -t 0.083128153 -s 29 -d -1 -p DSR -e 48 -c 2 -a 0 -i 37 -k RTR 
- -t 0.083128153 -s 29 -d -1 -p DSR -e 48 -c 2 -a 0 -i 37 -k RTR
h -t 0.083128153 -s 29 -d -1 -p DSR -e 48 -c 2 -a 0 -i 37 -k RTR -R 30.00 -D 0.00
n -t 0.083479824 -s 5 -S COLOR -c gold -o black
n -t 0.083479851 -s 6 -S COLOR -c gold -o black
n -t 0.084235688 -s 11 -S COLOR -c gold -o black
n -t 0.084235716 -s 16 -S COLOR -c gold -o black
n -t 0.084393280 -s 5 -S COLOR -c gold -o black
n -t 0.084393308 -s 6 -S COLOR -c gold -o black
n -t 0.084425812 -s 18 -S COLOR -c gold -o black
n -t 0.084425840 -s 13 -S COLOR -c gold -o black
+ -t 0.084444940 -s 15 -d -1 -p DSR -e 68 -c 2 -a 0 -i 34 -k RTR 
- -t 0.084444940 -s 15 -d -1 -p DSR -e 68 -c 2 -a 0 -i 34 -k RTR
h -t 0.084444940 -s 15 -d -1 -p DSR -e 68 -c 2 -a 0 -i 34 -k RTR -R 30.00 -D 0.00
n -t 0.085073221 -s 24 -S COLOR -c gold -o black
n -t 0.085073248 -s 23 -S COLOR -c gold -o black
+ -t 0.086077917 -s 39 -d -1 -p DSR -e 32 -c 2 -a 0 -i 43 -k RTR 
- -t 0.086077917 -s 39 -d -1 -p DSR -e 32 -c 2 -a 0 -i 43 -k RTR
h -t 0.086077917 -s 39 -d -1 -p DSR -e 32 -c 2 -a 0 -i 43 -k RTR -R 30.00 -D 0.00
+ -t 0.086601705 -s 28 -d -1 -p DSR -e 48 -c 2 -a 0 -i 37 -k RTR 
- -t 0.086601705 -s 28 -d -1 -p DSR -e 48 -c 2 -a 0 -i 37 -k RTR
h -t 0.086601705 -s 28 -d -1 -p DSR -e 48 -c 2 -a 0 -i 37 -k RTR -R 30.00 -D 0.00
n -t 0.086635688 -s 11 -S COLOR -c gold -o black
n -t 0.086635716 -s 16 -S COLOR -c gold -o black
n -t 0.087025248 -s 33 -S COLOR -c gold -o black
r -t 0.087272514 -s 36 -d 36 -p exp -e 64 -c 2 -a 0 -i 26 -k AGT
+ -t 0.087322676 -s 27 -d -1 -p DSR -e 68 -c 2 -a 0 -i 37 -k RTR 
- -t 0.087322676 -s 27 -d -1 -p DSR -e 68 -c 2 -a 0 -i 37 -k RTR
h -t 0.087322676 -s 27 -d -1 -p DSR -e 68 -c 2 -a 0 -i 37 -k RTR -R 30.00 -D 0.00
+ -t 0.087403127 -s 13 -d -1 -p DSR -e 68 -c 2 -a 0 -i 37 -k RTR 
- -t 0.087403127 -s 13 -d -1 -p DSR -e 68 -c 2 -a 0 -i 37 -k RTR
h -t 0.087403127 -s 13 -d -1 -p DSR -e 68 -c 2 -a 0 -i 37 -k RTR -R 30.00 -D 0.00
+ -t 0.087414158 -s 17 -d -1 -p DSR -e 48 -c 2 -a 0 -i 35 -k RTR 
- -t 0.087414158 -s 17 -d -1 -p DSR -e 48 -c 2 -a 0 -i 35 -k RTR
h -t 0.087414158 -s 17 -d -1 -p DSR -e 48 -c 2 -a 0 -i 35 -k RTR -R 30.00 -D 0.00
+ -t 0.087748216 -s 22 -d -1 -p DSR -e 68 -c 2 -a 0 -i 37 -k RTR 
- -t 0.087748216 -s 22 -d -1 -p DSR -e 68 -c 2 -a 0 -i 37 -k RTR
h -t 0.087748216 -s 22 -d -1 -p DSR -e 68 -c 2 -a 0 -i 37 -k RTR -R 30.00 -D 0.00
+ -t 0.087774262 -s 3 -d -1 -p DSR -e 68 -c 2 -a 0 -i 34 -k RTR 
- -t 0.087774262 -s 3 -d -1 -p DSR -e 68 -c 2 -a 0 -i 34 -k RTR
h -t 0.087774262 -s 3 -d -1 -p DSR -e 68 -c 2 -a 0 -i 34 -k RTR -R 30.00 -D 0.00
+ -t 0.088253411 -s 7 -d -1 -p DSR -e 48 -c 2 -a 0 -i 35 -k RTR 
- -t 0.088253411 -s 7 -d -1 -p DSR -e 48 -c 2 -a 0 -i 35 -k RTR
h -t 0.088253411 -s 7 -d -1 -p DSR -e 48 -c 2 -a 0 -i 35 -k RTR -R 30.00 -D 0.00
+ -t 0.088739353 -s 16 -d -1 -p DSR -e 68 -c 2 -a 0 -i 34 -k RTR 
- -t 0.088739353 -s 16 -d -1 -p DSR -e 68 -c 2 -a 0 -i 34 -k RTR
h -t 0.088739353 -s 16 -d -1 -p DSR -e 68 -c 2 -a 0 -i 34 -k RTR -R 30.00 -D 0.00
+ -t 0.088963499 -s 14 -d -1 -p DSR -e 68 -c 2 -a 0 -i 37 -k RTR 
- -t 0.088963499 -s 14 -d -1 -p DSR -e 68 -c 2 -a 0 -i 37 -k RTR
h -t 0.088963499 -s 14 -d -1 -p DSR -e 68 -c 2 -a 0 -i 37 -k RTR -R 30.00 -D 0.00
n -t 0.089206602 -s 7 -S COLOR -c grey -o gold
n -t 0.089206630 -s 6 -S COLOR -c grey -o gold
+ -t 0.089301843 -s 15 -d -1 -p DSR -e 48 -c 2 -a 0 -i 36 -k RTR 
- -t 0.089301843 -s 15 -d -1 -p DSR -e 48 -c 2 -a 0 -i 36 -k RTR
h -t 0.089301843 -s 15 -d -1 -p DSR -e 48 -c 2 -a 0 -i 36 -k RTR -R 30.00 -D 0.00
+ -t 0.089362453 -s 13 -d -1 -p DSR -e 68 -c 2 -a 0 -i 34 -k RTR 
- -t 0.089362453 -s 13 -d -1 -p DSR -e 68 -c 2 -a 0 -i 34 -k RTR
h -t 0.089362453 -s 13 -d -1 -p DSR -e 68 -c 2 -a 0 -i 34 -k RTR -R 30.00 -D 0.00
+ -t 0.089420096 -s 17 -d -1 -p DSR -e 68 -c 2 -a 0 -i 37 -k RTR 
- -t 0.089420096 -s 17 -d -1 -p DSR -e 68 -c 2 -a 0 -i 37 -k RTR
h -t 0.089420096 -s 17 -d -1 -p DSR -e 68 -c 2 -a 0 -i 37 -k RTR -R 30.00 -D 0.00
n -t 0.089679225 -s 16 -S COLOR -c gold -o black
n -t 0.089679225 -s 22 -S COLOR -c gold -o black
n -t 0.089679253 -s 11 -S COLOR -c gold -o black
n -t 0.089679253 -s 23 -S COLOR -c gold -o black
n -t 0.089754170 -s 17 -S COLOR -c grey -o gold
n -t 0.089754198 -s 12 -S COLOR -c grey -o gold
+ -t 0.089857844 -s 8 -d -1 -p DSR -e 68 -c 2 -a 0 -i 34 -k RTR 
- -t 0.089857844 -s 8 -d -1 -p DSR -e 68 -c 2 -a 0 -i 34 -k RTR
h -t 0.089857844 -s 8 -d -1 -p DSR -e 68 -c 2 -a 0 -i 34 -k RTR -R 30.00 -D 0.00
+ -t 0.089869579 -s 8 -d -1 -p DSR -e 48 -c 2 -a 0 -i 35 -k RTR 
- -t 0.089869579 -s 8 -d -1 -p DSR -e 48 -c 2 -a 0 -i 35 -k RTR
h -t 0.089869579 -s 8 -d -1 -p DSR -e 48 -c 2 -a 0 -i 35 -k RTR -R 30.00 -D 0.00
n -t 0.090588566 -s 13 -S COLOR -c gold -o black
n -t 0.090588566 -s 9 -S COLOR -c gold -o black
n -t 0.090588594 -s 8 -S COLOR -c gold -o black
n -t 0.090588594 -s 18 -S COLOR -c gold -o black
+ -t 0.090821548 -s 34 -d -1 -p DSR -e 68 -c 2 -a 0 -i 37 -k RTR 
- -t 0.090821548 -s 34 -d -1 -p DSR -e 68 -c 2 -a 0 -i 37 -k RTR
h -t 0.090821548 -s 34 -d -1 -p DSR -e 68 -c 2 -a 0 -i 37 -k RTR -R 30.00 -D 0.00
+ -t 0.092063788 -s 34 -d -1 -p DSR -e 48 -c 2 -a 0 -i 43 -k RTR 
- -t 0.092063788 -s 34 -d -1 -p DSR -e 48 -c 2 -a 0 -i 43 -k RTR
h -t 0.092063788 -s 34 -d -1 -p DSR -e 48 -c 2 -a 0 -i 43 -k RTR -R 30.00 -D 0.00
+ -t 0.092774271 -s 21 -d -1 -p DSR -e 92 -c 2 -a 0 -i 34 -k RTR 
- -t 0.092774271 -s 21 -d -1 -p DSR -e 92 -c 2 -a 0 -i 34 -k RTR
h -t 0.092774271 -s 21 -d -1 -p DSR -e 92 -c 2 -a 0 -i 34 -k RTR -R 30.00 -D 0.00
+ -t 0.092965104 -s 18 -d -1 -p DSR -e 68 -c 2 -a 0 -i 34 -k RTR 
- -t 0.092965104 -s 18 -d -1 -p DSR -e 68 -c 2 -a 0 -i 34 -k RTR
h -t 0.092965104 -s 18 -d -1 -p DSR -e 68 -c 2 -a 0 -i 34 -k RTR -R 30.00 -D 0.00
+ -t 0.093133708 -s 38 -d -1 -p DSR -e 48 -c 2 -a 0 -i 43 -k RTR 
- -t 0.093133708 -s 38 -d -1 -p DSR -e 48 -c 2 -a 0 -i 43 -k RTR
h -t 0.093133708 -s 38 -d -1 -p DSR -e 48 -c 2 -a 0 -i 43 -k RTR -R 30.00 -D 0.00
+ -t 0.093371909 -s 33 -d -1 -p DSR -e 48 -c 2 -a 0 -i 43 -k RTR 
- -t 0.093371909 -s 33 -d -1 -p DSR -e 48 -c 2 -a 0 -i 43 -k RTR
h -t 0.093371909 -s 33 -d -1 -p DSR -e 48 -c 2 -a 0 -i 43 -k RTR -R 30.00 -D 0.00
n -t 0.093479824 -s 5 -S COLOR -c grey -o gold
n -t 0.093479851 -s 6 -S COLOR -c grey -o gold
n -t 0.094235688 -s 11 -S COLOR -c grey -o gold
n -t 0.094235716 -s 16 -S COLOR -c grey -o gold
n -t 0.094393280 -s 5 -S COLOR -c grey -o gold
n -t 0.094393308 -s 6 -S COLOR -c grey -o gold
n -t 0.094425812 -s 18 -S COLOR -c grey -o gold
n -t 0.094425840 -s 13 -S COLOR -c grey -o gold
n -t 0.094515744 -s 22 -S COLOR -c gold -o black
n -t 0.094515744 -s 28 -S COLOR -c gold -o black
n -t 0.094515772 -s 23 -S COLOR -c gold -o black
n -t 0.094515772 -s 21 -S COLOR -c gold -o black
n -t 0.094515772 -s 33 -S COLOR -c gold -o black
+ -t 0.094622044 -s 17 -d -1 -p DSR -e 68 -c 2 -a 0 -i 34 -k RTR 
- -t 0.094622044 -s 17 -d -1 -p DSR -e 68 -c 2 -a 0 -i 34 -k RTR
h -t 0.094622044 -s 17 -d -1 -p DSR -e 68 -c 2 -a 0 -i 34 -k RTR -R 30.00 -D 0.00
n -t 0.095073221 -s 24 -S COLOR -c grey -o gold
n -t 0.095073248 -s 23 -S COLOR -c grey -o gold
n -t 0.095770912 -s 13 -S COLOR -c gold -o black
n -t 0.095770939 -s 12 -S COLOR -c gold -o black
+ -t 0.096221296 -s 33 -d -1 -p DSR -e 68 -c 2 -a 0 -i 37 -k RTR 
- -t 0.096221296 -s 33 -d -1 -p DSR -e 68 -c 2 -a 0 -i 37 -k RTR
h -t 0.096221296 -s 33 -d -1 -p DSR -e 68 -c 2 -a 0 -i 37 -k RTR -R 30.00 -D 0.00
+ -t 0.096624815 -s 20 -d -1 -p DSR -e 68 -c 2 -a 0 -i 36 -k RTR 
- -t 0.096624815 -s 20 -d -1 -p DSR -e 68 -c 2 -a 0 -i 36 -k RTR
h -t 0.096624815 -s 20 -d -1 -p DSR -e 68 -c 2 -a 0 -i 36 -k RTR -R 30.00 -D 0.00
n -t 0.096635688 -s 11 -S COLOR -c grey -o gold
n -t 0.096635716 -s 16 -S COLOR -c grey -o gold
n -t 0.096958644 -s 28 -S COLOR -c gold -o black
n -t 0.097025248 -s 33 -S COLOR -c grey -o gold
+ -t 0.097162258 -s 33 -d -1 -p exp -e 64 -c 2 -a 0 -i 46 -k AGT 
- -t 0.097162258 -s 33 -d -1 -p exp -e 64 -c 2 -a 0 -i 46 -k AGT
h -t 0.097162258 -s 33 -d -1 -p exp -e 64 -c 2 -a 0 -i 46 -k AGT
+ -t 0.097374285 -s 20 -d -1 -p DSR -e 92 -c 2 -a 0 -i 34 -k RTR 
- -t 0.097374285 -s 20 -d -1 -p DSR -e 92 -c 2 -a 0 -i 34 -k RTR
h -t 0.097374285 -s 20 -d -1 -p DSR -e 92 -c 2 -a 0 -i 34 -k RTR -R 30.00 -D 0.00
n -t 0.097406172 -s 13 -S COLOR -c gold -o black
n -t 0.097406200 -s 14 -S COLOR -c gold -o black
+ -t 0.097520698 -s 39 -d -1 -p DSR -e 92 -c 2 -a 0 -i 37 -k RTR 
- -t 0.097520698 -s 39 -d -1 -p DSR -e 92 -c 2 -a 0 -i 37 -k RTR
h -t 0.097520698 -s 39 -d -1 -p DSR -e 92 -c 2 -a 0 -i 37 -k RTR -R 30.00 -D 0.00
+ -t 0.097580346 -s 38 -d -1 -p DSR -e 92 -c 2 -a 0 -i 37 -k RTR 
- -t 0.097580346 -s 38 -d -1 -p DSR -e 92 -c 2 -a 0 -i 37 -k RTR
h -t 0.097580346 -s 38 -d -1 -p DSR -e 92 -c 2 -a 0 -i 37 -k RTR -R 30.00 -D 0.00
n -t 0.098910616 -s 33 -S COLOR -c gold -o black
+ -t 0.099166036 -s 4 -d -1 -p DSR -e 92 -c 2 -a 0 -i 34 -k RTR 
- -t 0.099166036 -s 4 -d -1 -p DSR -e 92 -c 2 -a 0 -i 34 -k RTR
h -t 0.099166036 -s 4 -d -1 -p DSR -e 92 -c 2 -a 0 -i 34 -k RTR -R 30.00 -D 0.00
n -t 0.099206602 -s 7 -S COLOR -c black -o grey
n -t 0.099206630 -s 6 -S COLOR -c black -o grey
n -t 0.099322939 -s 12 -S COLOR -c gold -o black
n -t 0.099679225 -s 16 -S COLOR -c grey -o gold
n -t 0.099679225 -s 22 -S COLOR -c grey -o gold
n -t 0.099679253 -s 11 -S COLOR -c grey -o gold
n -t 0.099679253 -s 23 -S COLOR -c grey -o gold
n -t 0.099754170 -s 17 -S COLOR -c black -o grey
n -t 0.099754198 -s 12 -S COLOR -c black -o grey
+ -t 0.099896471 -s 32 -d -1 -p DSR -e 68 -c 2 -a 0 -i 37 -k RTR 
- -t 0.099896471 -s 32 -d -1 -p DSR -e 68 -c 2 -a 0 -i 37 -k RTR
h -t 0.099896471 -s 32 -d -1 -p DSR -e 68 -c 2 -a 0 -i 37 -k RTR -R 30.00 -D 0.00
+ -t 0.099985606 -s 26 -d -1 -p DSR -e 92 -c 2 -a 0 -i 37 -k RTR 
- -t 0.099985606 -s 26 -d -1 -p DSR -e 92 -c 2 -a 0 -i 37 -k RTR
h -t 0.099985606 -s 26 -d -1 -p DSR -e 92 -c 2 -a 0 -i 37 -k RTR -R 30.00 -D 0.00
+ -t 0.100109635 -s 29 -d -1 -p DSR -e 68 -c 2 -a 0 -i 43 -k RTR 
- -t 0.100109635 -s 29 -d -1 -p DSR -e 68 -c 2 -a 0 -i 43 -k RTR
h -t 0.100109635 -s 29 -d -1 -p DSR -e 68 -c 2 -a 0 -i 43 -k RTR -R 30.00 -D 0.00
n -t 0.100588566 -s 13 -S COLOR -c grey -o gold
n -t 0.100588566 -s 9 -S COLOR -c grey -o gold
n -t 0.100588594 -s 8 -S COLOR -c grey -o gold
n -t 0.100588594 -s 18 -S COLOR -c grey -o gold
+ -t 0.101002093 -s 9 -d -1 -p DSR -e 92 -c 2 -a 0 -i 34 -k RTR 
- -t 0.101002093 -s 9 -d -1 -p DSR -e 92 -c 2 -a 0 -i 34 -k RTR
h -t 0.101002093 -s 9 -d -1 -p DSR -e 92 -c 2 -a 0 -i 34 -k RTR -R 30.00 -D 0.00
n -t 0.101274912 -s 13 -S COLOR -c gold -o black
n -t 0.101274939 -s 14 -S COLOR -c gold -o black
+ -t 0.101467014 -s 25 -d -1 -p DSR -e 92 -c 2 -a 0 -i 36 -k RTR 
- -t 0.101467014 -s 25 -d -1 -p DSR -e 92 -c 2 -a 0 -i 36 -k RTR
h -t 0.101467014 -s 25 -d -1 -p DSR -e 92 -c 2 -a 0 -i 36 -k RTR -R 30.00 -D 0.00
n -t 0.101790526 -s 8 -S COLOR -c gold -o black
n -t 0.101790554 -s 3 -S COLOR -c gold -o black
n -t 0.101790554 -s 13 -S COLOR -c gold -o black
n -t 0.102031225 -s 12 -S COLOR -c gold -o black
n -t 0.102031253 -s 13 -S COLOR -c gold -o black
n -t 0.102031253 -s 11 -S COLOR -c gold -o black
+ -t 0.102091080 -s 11 -d -1 -p DSR -e 68 -c 2 -a 0 -i 36 -k RTR 
- -t 0.102091080 -s 11 -d -1 -p DSR -e 68 -c 2 -a 0 -i 36 -k RTR
h -t 0.102091080 -s 11 -d -1 -p DSR -e 68 -c 2 -a 0 -i 36 -k RTR -R 30.00 -D 0.00
n -t 0.102121883 -s 21 -S COLOR -c gold -o black
n -t 0.102121911 -s 16 -S COLOR -c gold -o black
n -t 0.102121911 -s 26 -S COLOR -c gold -o black
+ -t 0.102199919 -s 21 -d -1 -p DSR -e 68 -c 2 -a 0 -i 35 -k RTR 
- -t 0.102199919 -s 21 -d -1 -p DSR -e 68 -c 2 -a 0 -i 35 -k RTR
h -t 0.102199919 -s 21 -d -1 -p DSR -e 68 -c 2 -a 0 -i 35 -k RTR -R 30.00 -D 0.00
+ -t 0.102249557 -s 16 -d -1 -p DSR -e 68 -c 2 -a 0 -i 36 -k RTR 
- -t 0.102249557 -s 16 -d -1 -p DSR -e 68 -c 2 -a 0 -i 36 -k RTR
h -t 0.102249557 -s 16 -d -1 -p DSR -e 68 -c 2 -a 0 -i 36 -k RTR -R 30.00 -D 0.00
n -t 0.102694703 -s 28 -S COLOR -c gold -o black
n -t 0.102694731 -s 23 -S COLOR -c gold -o black
n -t 0.102694731 -s 33 -S COLOR -c gold -o black
+ -t 0.103092833 -s 21 -d -1 -p DSR -e 68 -c 2 -a 0 -i 36 -k RTR 
- -t 0.103092833 -s 21 -d -1 -p DSR -e 68 -c 2 -a 0 -i 36 -k RTR
h -t 0.103092833 -s 21 -d -1 -p DSR -e 68 -c 2 -a 0 -i 36 -k RTR -R 30.00 -D 0.00
n -t 0.103433765 -s 38 -S COLOR -c gold -o black
n -t 0.103433765 -s 34 -S COLOR -c gold -o black
n -t 0.103433793 -s 33 -S COLOR -c gold -o black
n -t 0.103479824 -s 5 -S COLOR -c black -o grey
n -t 0.103479851 -s 6 -S COLOR -c black -o grey
+ -t 0.103686539 -s 33 -d -1 -p DSR -e 32 -c 2 -a 0 -i 47 -k RTR 
- -t 0.103686539 -s 33 -d -1 -p DSR -e 32 -c 2 -a 0 -i 47 -k RTR
h -t 0.103686539 -s 33 -d -1 -p DSR -e 32 -c 2 -a 0 -i 47 -k RTR -R 30.00 -D 0.00
+ -t 0.103777221 -s 37 -d -1 -p exp -e 64 -c 2 -a 0 -i 50 -k AGT 
- -t 0.103777221 -s 37 -d -1 -p exp -e 64 -c 2 -a 0 -i 50 -k AGT
h -t 0.103777221 -s 37 -d -1 -p exp -e 64 -c 2 -a 0 -i 50 -k AGT
+ -t 0.103777221 -s 37 -d 36 -p exp -e 100 -c 2 -a 0 -i 50 -k RTR 
- -t 0.103777221 -s 37 -d 36 -p exp -e 100 -c 2 -a 0 -i 50 -k RTR
h -t 0.103777221 -s 37 -d 36 -p exp -e 100 -c 2 -a 0 -i 50 -k RTR
n -t 0.104235688 -s 11 -S COLOR -c black -o grey
n -t 0.104235716 -s 16 -S COLOR -c black -o grey
n -t 0.104393280 -s 5 -S COLOR -c black -o grey
n -t 0.104393308 -s 6 -S COLOR -c black -o grey
n -t 0.104425812 -s 18 -S COLOR -c black -o grey
n -t 0.104425840 -s 13 -S COLOR -c black -o grey
n -t 0.104515744 -s 22 -S COLOR -c grey -o gold
n -t 0.104515744 -s 28 -S COLOR -c grey -o gold
n -t 0.104515772 -s 23 -S COLOR -c grey -o gold
n -t 0.104515772 -s 21 -S COLOR -c grey -o gold
n -t 0.104515772 -s 33 -S COLOR -c grey -o gold
+ -t 0.104646847 -s 10 -d -1 -p exp -e 64 -c 2 -a 0 -i 51 -k AGT 
- -t 0.104646847 -s 10 -d -1 -p exp -e 64 -c 2 -a 0 -i 51 -k AGT
h -t 0.104646847 -s 10 -d -1 -p exp -e 64 -c 2 -a 0 -i 51 -k AGT
+ -t 0.104829172 -s 36 -d -1 -p DSR -e 92 -c 2 -a 0 -i 37 -k RTR 
- -t 0.104829172 -s 36 -d -1 -p DSR -e 92 -c 2 -a 0 -i 37 -k RTR
h -t 0.104829172 -s 36 -d -1 -p DSR -e 92 -c 2 -a 0 -i 37 -k RTR -R 30.00 -D 0.00
+ -t 0.105039210 -s 16 -d -1 -p DSR -e 92 -c 2 -a 0 -i 37 -k RTR 
- -t 0.105039210 -s 16 -d -1 -p DSR -e 92 -c 2 -a 0 -i 37 -k RTR
h -t 0.105039210 -s 16 -d -1 -p DSR -e 92 -c 2 -a 0 -i 37 -k RTR -R 30.00 -D 0.00
+ -t 0.105065046 -s 22 -d -1 -p DSR -e 92 -c 2 -a 0 -i 34 -k RTR 
- -t 0.105065046 -s 22 -d -1 -p DSR -e 92 -c 2 -a 0 -i 34 -k RTR
h -t 0.105065046 -s 22 -d -1 -p DSR -e 92 -c 2 -a 0 -i 34 -k RTR -R 30.00 -D 0.00
n -t 0.105073221 -s 24 -S COLOR -c black -o grey
n -t 0.105073248 -s 23 -S COLOR -c black -o grey
n -t 0.105770912 -s 13 -S COLOR -c grey -o gold
n -t 0.105770939 -s 12 -S COLOR -c grey -o gold
+ -t 0.105911251 -s 26 -d -1 -p DSR -e 92 -c 2 -a 0 -i 36 -k RTR 
- -t 0.105911251 -s 26 -d -1 -p DSR -e 92 -c 2 -a 0 -i 36 -k RTR
h -t 0.105911251 -s 26 -d -1 -p DSR -e 92 -c 2 -a 0 -i 36 -k RTR -R 30.00 -D 0.00
n -t 0.106100081 -s 30 -S COLOR -c gold -o black
n -t 0.106100109 -s 31 -S COLOR -c gold -o black
+ -t 0.106180972 -s 23 -d -1 -p DSR -e 92 -c 2 -a 0 -i 34 -k RTR 
- -t 0.106180972 -s 23 -d -1 -p DSR -e 92 -c 2 -a 0 -i 34 -k RTR
h -t 0.106180972 -s 23 -d -1 -p DSR -e 92 -c 2 -a 0 -i 34 -k RTR -R 30.00 -D 0.00
+ -t 0.106498039 -s 11 -d -1 -p DSR -e 92 -c 2 -a 0 -i 37 -k RTR 
- -t 0.106498039 -s 11 -d -1 -p DSR -e 92 -c 2 -a 0 -i 37 -k RTR
h -t 0.106498039 -s 11 -d -1 -p DSR -e 92 -c 2 -a 0 -i 37 -k RTR -R 30.00 -D 0.00
n -t 0.106635688 -s 11 -S COLOR -c black -o grey
n -t 0.106635716 -s 16 -S COLOR -c black -o grey
+ -t 0.106892461 -s 31 -d -1 -p DSR -e 92 -c 2 -a 0 -i 37 -k RTR 
- -t 0.106892461 -s 31 -d -1 -p DSR -e 92 -c 2 -a 0 -i 37 -k RTR
h -t 0.106892461 -s 31 -d -1 -p DSR -e 92 -c 2 -a 0 -i 37 -k RTR -R 30.00 -D 0.00
n -t 0.106958644 -s 28 -S COLOR -c grey -o gold
n -t 0.107025248 -s 33 -S COLOR -c black -o grey
n -t 0.107406172 -s 13 -S COLOR -c grey -o gold
n -t 0.107406200 -s 14 -S COLOR -c grey -o gold
n -t 0.107447103 -s 3 -S COLOR -c gold -o black
n -t 0.107447131 -s 8 -S COLOR -c gold -o black
+ -t 0.108011072 -s 9 -d -1 -p DSR -e 68 -c 2 -a 0 -i 35 -k RTR 
- -t 0.108011072 -s 9 -d -1 -p DSR -e 68 -c 2 -a 0 -i 35 -k RTR
h -t 0.108011072 -s 9 -d -1 -p DSR -e 68 -c 2 -a 0 -i 35 -k RTR -R 30.00 -D 0.00
+ -t 0.108527304 -s 19 -d -1 -p DSR -e 92 -c 2 -a 0 -i 34 -k RTR 
- -t 0.108527304 -s 19 -d -1 -p DSR -e 92 -c 2 -a 0 -i 34 -k RTR