Sconfig 0.00000 tap: on snoop: rts? on errs? on
Sconfig 0.00000 salvage: on !bd replies? on
Sconfig 0.00000 grat error: on grat reply: on
Sconfig 0.00000 $reply for props: on ring 0 search: on
Sconfig 0.00000 using MOBICACHE
s 0.013650742 _10_ AGT  --- 0 exp 64 [0 0 0 0] ------- [10:2 0:2 32 0] 
r 0.013650742 _10_ RTR  --- 0 exp 64 [0 0 0 0] ------- [10:2 0:2 32 0] 
s 0.015709567 _10_ RTR  --- 1 DSR 32 [0 0 0 0] ------- [10:255 0:255 32 0] 1 [1 1] [0 1 0 0->0] [0 0 0 0->0]
s 0.019182315 _19_ AGT  --- 2 exp 64 [0 0 0 0] ------- [19:1 23:0 32 0] 
r 0.019182315 _19_ RTR  --- 2 exp 64 [0 0 0 0] ------- [19:1 23:0 32 0] 
r 0.019439633 _5_ RTR  --- 1 DSR 32 [0 ffffffff a 800] ------- [10:255 0:255 32 0] 1 [1 1] [0 1 0 0->0] [0 0 0 0->0]
r 0.019439633 _11_ RTR  --- 1 DSR 32 [0 ffffffff a 800] ------- [10:255 0:255 32 0] 1 [1 1] [0 1 0 0->0] [0 0 0 0->0]
r 0.019439633 _15_ RTR  --- 1 DSR 32 [0 ffffffff a 800] ------- [10:255 0:255 32 0] 1 [1 1] [0 1 0 0->0] [0 0 0 0->0]
r 0.019439661 _6_ RTR  --- 1 DSR 32 [0 ffffffff a 800] ------- [10:255 0:255 32 0] 1 [1 1] [0 1 0 0->0] [0 0 0 0->0]
r 0.019439661 _16_ RTR  --- 1 DSR 32 [0 ffffffff a 800] ------- [10:255 0:255 32 0] 1 [1 1] [0 1 0 0->0] [0 0 0 0->0]
s 0.020253551 _39_ AGT  --- 4 exp 64 [0 0 0 0] ------- [39:1 22:0 32 0] 
r 0.020253551 _39_ RTR  --- 4 exp 64 [0 0 0 0] ------- [39:1 22:0 32 0] 
s 0.021829799 _19_ RTR  --- 3 DSR 32 [0 0 0 0] ------- [19:255 23:255 32 0] 1 [1 1] [0 1 0 0->0] [0 0 0 0->0]
r 0.025559866 _18_ RTR  --- 3 DSR 32 [0 ffffffff 13 800] ------- [19:255 23:255 32 0] 1 [1 1] [0 1 0 0->0] [0 0 0 0->0]
r 0.025559866 _14_ RTR  --- 3 DSR 32 [0 ffffffff 13 800] ------- [19:255 23:255 32 0] 1 [1 1] [0 1 0 0->0] [0 0 0 0->0]
r 0.025559866 _24_ RTR  --- 3 DSR 32 [0 ffffffff 13 800] ------- [19:255 23:255 32 0] 1 [1 1] [0 1 0 0->0] [0 0 0 0->0]
r 0.025559893 _13_ RTR  --- 3 DSR 32 [0 ffffffff 13 800] ------- [19:255 23:255 32 0] 1 [1 1] [0 1 0 0->0] [0 0 0 0->0]
r 0.025559893 _23_ RTR  --- 3 DSR 32 [0 ffffffff 13 800] ------- [19:255 23:255 32 0] 1 [1 1] [0 1 0 0->0] [0 0 0 0->0]
s 0.026807968 _39_ RTR  --- 5 DSR 32 [0 0 0 0] ------- [39:255 22:255 32 0] 1 [1 1] [0 1 0 0->0] [0 0 0 0->0]
s 0.027488936 _23_ RTR  --- 6 DSR 44 [0 0 0 0] ------- [23:255 19:255 254 19] 2 [0 1] [1 1 2 19->23] [0 0 0 0->0]
s 0.027586010 _6_ AGT  --- 7 exp 64 [0 0 0 0] ------- [6:0 29:2 32 0] 
r 0.027586010 _6_ RTR  --- 7 exp 64 [0 0 0 0] ------- [6:0 29:2 32 0] 
s 0.028520339 _37_ AGT  --- 9 exp 64 [0 0 0 0] ------- [37:0 36:1 32 0] 
r 0.028520339 _37_ RTR  --- 9 exp 64 [0 0 0 0] ------- [37:0 36:1 32 0] 
s 0.028780168 _6_ RTR  --- 8 DSR 32 [0 0 0 0] ------- [6:255 29:255 32 0] 1 [1 1] [0 1 0 0->0] [0 0 0 0->0]
s 0.029540305 _12_ AGT  --- 11 exp 64 [0 0 0 0] ------- [12:0 36:0 32 0] 
r 0.029540305 _12_ RTR  --- 11 exp 64 [0 0 0 0] ------- [12:0 36:0 32 0] 
s 0.030663713 _37_ RTR  --- 10 DSR 32 [0 0 0 0] ------- [37:255 36:255 32 0] 1 [1 1] [0 1 0 0->0] [0 0 0 0->0]
r 0.030858035 _38_ RTR  --- 5 DSR 32 [0 ffffffff 27 800] ------- [39:255 22:255 32 0] 1 [1 1] [0 1 0 0->0] [0 0 0 0->0]
r 0.030858035 _34_ RTR  --- 5 DSR 32 [0 ffffffff 27 800] ------- [39:255 22:255 32 0] 1 [1 1] [0 1 0 0->0] [0 0 0 0->0]
r 0.030858062 _33_ RTR  --- 5 DSR 32 [0 ffffffff 27 800] ------- [39:255 22:255 32 0] 1 [1 1] [0 1 0 0->0] [0 0 0 0->0]
r 0.031550234 _5_ RTR  --- 8 DSR 32 [0 ffffffff 6 800] ------- [6:255 29:255 32 0] 1 [1 1] [0 1 0 0->0] [0 0 0 0->0]
r 0.031550234 _1_ RTR  --- 8 DSR 32 [0 ffffffff 6 800] ------- [6:255 29:255 32 0] 1 [1 1] [0 1 0 0->0] [0 0 0 0->0]
r 0.031550234 _7_ RTR  --- 8 DSR 32 [0 ffffffff 6 800] ------- [6:255 29:255 32 0] 1 [1 1] [0 1 0 0->0] [0 0 0 0->0]
r 0.031550234 _11_ RTR  --- 8 DSR 32 [0 ffffffff 6 800] ------- [6:255 29:255 32 0] 1 [1 1] [0 1 0 0->0] [0 0 0 0->0]
r 0.031550262 _2_ RTR  --- 8 DSR 32 [0 ffffffff 6 800] ------- [6:255 29:255 32 0] 1 [1 1] [0 1 0 0->0] [0 0 0 0->0]
r 0.031550262 _0_ RTR  --- 8 DSR 32 [0 ffffffff 6 800] ------- [6:255 29:255 32 0] 1 [1 1] [0 1 0 0->0] [0 0 0 0->0]
r 0.031550262 _10_ RTR  --- 8 DSR 32 [0 ffffffff 6 800] ------- [6:255 29:255 32 0] 1 [1 1] [0 1 0 0->0] [0 0 0 0->0]
r 0.031550262 _12_ RTR  --- 8 DSR 32 [0 ffffffff 6 800] ------- [6:255 29:255 32 0] 1 [1 1] [0 1 0 0->0] [0 0 0 0->0]
s 0.033060312 _24_ AGT  --- 14 exp 64 [0 0 0 0] ------- [24:1 20:0 32 0] 
r 0.033060312 _24_ RTR  --- 14 exp 64 [0 0 0 0] ------- [24:1 20:0 32 0] 
s 0.033095593 _24_ RTR  --- 15 DSR 32 [0 0 0 0] ------- [24:255 20:255 32 0] 1 [1 1] [0 1 0 0->0] [0 0 0 0->0]
r 0.034393780 _36_ RTR  --- 10 DSR 32 [0 ffffffff 25 800] ------- [37:255 36:255 32 0] 1 [1 1] [0 1 0 0->0] [0 0 0 0->0]
r 0.034393780 _32_ RTR  --- 10 DSR 32 [0 ffffffff 25 800] ------- [37:255 36:255 32 0] 1 [1 1] [0 1 0 0->0] [0 0 0 0->0]
r 0.034393780 _38_ RTR  --- 10 DSR 32 [0 ffffffff 25 800] ------- [37:255 36:255 32 0] 1 [1 1] [0 1 0 0->0] [0 0 0 0->0]
r 0.034393808 _33_ RTR  --- 10 DSR 32 [0 ffffffff 25 800] ------- [37:255 36:255 32 0] 1 [1 1] [0 1 0 0->0] [0 0 0 0->0]
r 0.034393808 _31_ RTR  --- 10 DSR 32 [0 ffffffff 25 800] ------- [37:255 36:255 32 0] 1 [1 1] [0 1 0 0->0] [0 0 0 0->0]
s 0.036623825 _12_ RTR  --- 12 DSR 32 [0 0 0 0] ------- [12:255 36:255 32 0] 1 [1 1] [0 1 0 0->0] [0 0 0 0->0]
s 0.039166247 _36_ RTR  --- 16 DSR 44 [0 0 0 0] ------- [36:255 37:255 254 37] 2 [0 1] [1 1 2 37->36] [0 0 0 0->0]
s 0.039957702 _3_ AGT  --- 20 exp 64 [0 0 0 0] ------- [3:0 10:0 32 0] 
r 0.039957702 _3_ RTR  --- 20 exp 64 [0 0 0 0] ------- [3:0 10:0 32 0] 
r 0.041313892 _11_ RTR  --- 12 DSR 32 [0 ffffffff c 800] ------- [12:255 36:255 32 0] 1 [1 1] [0 1 0 0->0] [0 0 0 0->0]
r 0.041313892 _7_ RTR  --- 12 DSR 32 [0 ffffffff c 800] ------- [12:255 36:255 32 0] 1 [1 1] [0 1 0 0->0] [0 0 0 0->0]
r 0.041313920 _8_ RTR  --- 12 DSR 32 [0 ffffffff c 800] ------- [12:255 36:255 32 0] 1 [1 1] [0 1 0 0->0] [0 0 0 0->0]
r 0.041313920 _6_ RTR  --- 12 DSR 32 [0 ffffffff c 800] ------- [12:255 36:255 32 0] 1 [1 1] [0 1 0 0->0] [0 0 0 0->0]
r 0.041313920 _16_ RTR  --- 12 DSR 32 [0 ffffffff c 800] ------- [12:255 36:255 32 0] 1 [1 1] [0 1 0 0->0] [0 0 0 0->0]
s 0.044791051 _21_ AGT  --- 24 exp 64 [0 0 0 0] ------- [21:0 5:0 32 0] 
r 0.044791051 _21_ RTR  --- 24 exp 64 [0 0 0 0] ------- [21:0 5:0 32 0] 
s 0.045344618 _21_ RTR  --- 25 DSR 32 [0 0 0 0] ------- [21:255 5:255 32 0] 1 [1 1] [0 1 0 0->0] [0 0 0 0->0]
s 0.045864604 _37_ AGT  --- 26 exp 64 [0 0 0 0] ------- [37:0 36:1 32 0] 
r 0.045864604 _37_ RTR  --- 26 exp 64 [0 0 0 0] ------- [37:0 36:1 32 0] 
r 0.047332218 _19_ RTR  --- 6 DSR 44 [0 13 17 800] ------- [23:255 19:255 254 19] 2 [0 1] [1 1 2 19->23] [0 0 0 0->0]
SFESTs 0.047332218 _19_ 2 [19 -> 23] 1(1) to 23 [19 |23 ]
s 0.047332218 _19_ RTR  --- 2 exp 100 [0 0 0 0] ------- [19:1 23:0 32 23] 
r 0.047794685 _20_ RTR  --- 25 DSR 32 [0 ffffffff 15 800] ------- [21:255 5:255 32 0] 1 [1 1] [0 1 0 0->0] [0 0 0 0->0]
r 0.047794685 _16_ RTR  --- 25 DSR 32 [0 ffffffff 15 800] ------- [21:255 5:255 32 0] 1 [1 1] [0 1 0 0->0] [0 0 0 0->0]
r 0.047794685 _26_ RTR  --- 25 DSR 32 [0 ffffffff 15 800] ------- [21:255 5:255 32 0] 1 [1 1] [0 1 0 0->0] [0 0 0 0->0]
r 0.047794712 _15_ RTR  --- 25 DSR 32 [0 ffffffff 15 800] ------- [21:255 5:255 32 0] 1 [1 1] [0 1 0 0->0] [0 0 0 0->0]
r 0.047794712 _25_ RTR  --- 25 DSR 32 [0 ffffffff 15 800] ------- [21:255 5:255 32 0] 1 [1 1] [0 1 0 0->0] [0 0 0 0->0]
s 0.048940984 _3_ RTR  --- 21 DSR 32 [0 0 0 0] ------- [3:255 10:255 32 0] 1 [1 1] [0 1 0 0->0] [0 0 0 0->0]
r 0.050822447 _37_ RTR  --- 16 DSR 44 [0 25 24 800] ------- [36:255 37:255 254 37] 2 [0 1] [1 1 2 37->36] [0 0 0 0->0]
SFESTs 0.050822447 _37_ 9 [37 -> 36] 1(1) to 36 [37 |36 ]
SFESTs 0.050822447 _37_ 26 [37 -> 36] 1(1) to 36 [37 |36 ]
s 0.050822447 _37_ RTR  --- 9 exp 100 [0 0 0 0] ------- [37:0 36:1 32 36] 
r 0.052671050 _2_ RTR  --- 21 DSR 32 [0 ffffffff 3 800] ------- [3:255 10:255 32 0] 1 [1 1] [0 1 0 0->0] [0 0 0 0->0]
r 0.052671050 _4_ RTR  --- 21 DSR 32 [0 ffffffff 3 800] ------- [3:255 10:255 32 0] 1 [1 1] [0 1 0 0->0] [0 0 0 0->0]
r 0.052671050 _8_ RTR  --- 21 DSR 32 [0 ffffffff 3 800] ------- [3:255 10:255 32 0] 1 [1 1] [0 1 0 0->0] [0 0 0 0->0]
r 0.052671078 _7_ RTR  --- 21 DSR 32 [0 ffffffff 3 800] ------- [3:255 10:255 32 0] 1 [1 1] [0 1 0 0->0] [0 0 0 0->0]
r 0.052671078 _9_ RTR  --- 21 DSR 32 [0 ffffffff 3 800] ------- [3:255 10:255 32 0] 1 [1 1] [0 1 0 0->0] [0 0 0 0->0]
r 0.052822313 _23_ RTR  --- 2 exp 100 [0 17 13 800] ------- [19:1 23:0 32 23] 
r 0.052822313 _23_ AGT  --- 2 exp 64 [0 17 13 800] ------- [19:1 23:0 32 23] 
r 0.056632514 _36_ RTR  --- 9 exp 100 [0 24 25 800] ------- [37:0 36:1 32 36] 
r 0.056632514 _36_ AGT  --- 9 exp 64 [0 24 25 800] ------- [37:0 36:1 32 36] 
s 0.064972919 _20_ AGT  --- 30 exp 64 [0 0 0 0] ------- [20:1 12:1 32 0] 
r 0.064972919 _20_ RTR  --- 30 exp 64 [0 0 0 0] ------- [20:1 12:1 32 0] 
s 0.068262953 _20_ RTR  --- 31 DSR 32 [0 0 0 0] ------- [20:255 12:255 32 0] 1 [1 1] [0 1 0 0->0] [0 0 0 0->0]
s 0.068711534 _19_ AGT  --- 32 exp 64 [0 0 0 0] ------- [19:0 25:0 32 0] 
r 0.068711534 _19_ RTR  --- 32 exp 64 [0 0 0 0] ------- [19:0 25:0 32 0] 
r 0.071353019 _15_ RTR  --- 31 DSR 32 [0 ffffffff 14 800] ------- [20:255 12:255 32 0] 1 [1 1] [0 1 0 0->0] [0 0 0 0->0]
r 0.071353019 _21_ RTR  --- 31 DSR 32 [0 ffffffff 14 800] ------- [20:255 12:255 32 0] 1 [1 1] [0 1 0 0->0] [0 0 0 0->0]
r 0.071353019 _25_ RTR  --- 31 DSR 32 [0 ffffffff 14 800] ------- [20:255 12:255 32 0] 1 [1 1] [0 1 0 0->0] [0 0 0 0->0]
r 0.071353047 _16_ RTR  --- 31 DSR 32 [0 ffffffff 14 800] ------- [20:255 12:255 32 0] 1 [1 1] [0 1 0 0->0] [0 0 0 0->0]
r 0.071353047 _26_ RTR  --- 31 DSR 32 [0 ffffffff 14 800] ------- [20:255 12:255 32 0] 1 [1 1] [0 1 0 0->0] [0 0 0 0->0]
s 0.072680953 _6_ RTR  --- 34 DSR 32 [0 0 0 0] ------- [6:255 29:255 32 0] 1 [1 2] [0 2 0 0->0] [0 0 0 0->0]
s 0.074284983 _24_ RTR  --- 37 DSR 32 [0 0 0 0] ------- [24:255 20:255 32 0] 1 [1 2] [0 2 0 0->0] [0 0 0 0->0]
s 0.074302756 _10_ RTR  --- 36 DSR 32 [0 0 0 0] ------- [10:255 0:255 32 0] 1 [1 2] [0 2 0 0->0] [0 0 0 0->0]
s 0.074378024 _12_ AGT  --- 38 exp 64 [0 0 0 0] ------- [12:0 36:0 32 0] 
r 0.074378024 _12_ RTR  --- 38 exp 64 [0 0 0 0] ------- [12:0 36:0 32 0] 
s 0.076432744 _19_ RTR  --- 33 DSR 32 [0 0 0 0] ------- [19:255 25:255 32 0] 1 [1 2] [0 2 0 0->0] [0 0 0 0->0]
s 0.076789872 _39_ AGT  --- 40 exp 64 [0 0 0 0] ------- [39:0 2:0 32 0] 
r 0.076789872 _39_ RTR  --- 40 exp 64 [0 0 0 0] ------- [39:0 2:0 32 0] 
r 0.077371020 _5_ RTR  --- 34 DSR 32 [0 ffffffff 6 800] ------- [6:255 29:255 32 0] 1 [1 2] [0 2 0 0->0] [0 0 0 0->0]
r 0.077371020 _1_ RTR  --- 34 DSR 32 [0 ffffffff 6 800] ------- [6:255 29:255 32 0] 1 [1 2] [0 2 0 0->0] [0 0 0 0->0]
r 0.077371020 _7_ RTR  --- 34 DSR 32 [0 ffffffff 6 800] ------- [6:255 29:255 32 0] 1 [1 2] [0 2 0 0->0] [0 0 0 0->0]
r 0.077371020 _11_ RTR  --- 34 DSR 32 [0 ffffffff 6 800] ------- [6:255 29:255 32 0] 1 [1 2] [0 2 0 0->0] [0 0 0 0->0]
r 0.077371047 _2_ RTR  --- 34 DSR 32 [0 ffffffff 6 800] ------- [6:255 29:255 32 0] 1 [1 2] [0 2 0 0->0] [0 0 0 0->0]
r 0.077371047 _0_ RTR  --- 34 DSR 32 [0 ffffffff 6 800] ------- [6:255 29:255 32 0] 1 [1 2] [0 2 0 0->0] [0 0 0 0->0]
r 0.077371047 _10_ RTR  --- 34 DSR 32 [0 ffffffff 6 800] ------- [6:255 29:255 32 0] 1 [1 2] [0 2 0 0->0] [0 0 0 0->0]
r 0.077371047 _12_ RTR  --- 34 DSR 32 [0 ffffffff 6 800] ------- [6:255 29:255 32 0] 1 [1 2] [0 2 0 0->0] [0 0 0 0->0]
r 0.077375050 _23_ RTR  --- 37 DSR 32 [0 ffffffff 18 800] ------- [24:255 20:255 32 0] 1 [1 2] [0 2 0 0->0] [0 0 0 0->0]
r 0.077375050 _19_ RTR  --- 37 DSR 32 [0 ffffffff 18 800] ------- [24:255 20:255 32 0] 1 [1 2] [0 2 0 0->0] [0 0 0 0->0]
r 0.077375050 _29_ RTR  --- 37 DSR 32 [0 ffffffff 18 800] ------- [24:255 20:255 32 0] 1 [1 2] [0 2 0 0->0] [0 0 0 0->0]
r 0.077375077 _18_ RTR  --- 37 DSR 32 [0 ffffffff 18 800] ------- [24:255 20:255 32 0] 1 [1 2] [0 2 0 0->0] [0 0 0 0->0]
r 0.077375077 _28_ RTR  --- 37 DSR 32 [0 ffffffff 18 800] ------- [24:255 20:255 32 0] 1 [1 2] [0 2 0 0->0] [0 0 0 0->0]
s 0.077682620 _12_ RTR  --- 35 DSR 32 [0 0 0 0] ------- [12:255 36:255 32 0] 1 [1 2] [0 2 0 0->0] [0 0 0 0->0]
f 0.077849535 _19_ RTR  --- 37 DSR 48 [0 ffffffff 18 800] ------- [24:255 20:255 32 0] 2 [1 2] [0 2 0 0->0] [0 0 0 0->0]
s 0.078080115 _39_ RTR  --- 41 DSR 32 [0 0 0 0] ------- [39:255 2:255 32 0] 1 [1 2] [0 2 0 0->0] [0 0 0 0->0]
f 0.078129103 _18_ RTR  --- 37 DSR 48 [0 ffffffff 18 800] ------- [24:255 20:255 32 0] 2 [1 2] [0 2 0 0->0] [0 0 0 0->0]
f 0.078136030 _12_ RTR  --- 34 DSR 48 [0 ffffffff 6 800] ------- [6:255 29:255 32 0] 2 [1 2] [0 2 0 0->0] [0 0 0 0->0]
f 0.078221534 _2_ RTR  --- 34 DSR 48 [0 ffffffff 6 800] ------- [6:255 29:255 32 0] 2 [1 2] [0 2 0 0->0] [0 0 0 0->0]
f 0.078352175 _11_ RTR  --- 34 DSR 48 [0 ffffffff 6 800] ------- [6:255 29:255 32 0] 2 [1 2] [0 2 0 0->0] [0 0 0 0->0]
r 0.079522811 _18_ RTR  --- 33 DSR 32 [0 ffffffff 13 800] ------- [19:255 25:255 32 0] 1 [1 2] [0 2 0 0->0] [0 0 0 0->0]
r 0.079522811 _14_ RTR  --- 33 DSR 32 [0 ffffffff 13 800] ------- [19:255 25:255 32 0] 1 [1 2] [0 2 0 0->0] [0 0 0 0->0]
r 0.079522811 _24_ RTR  --- 33 DSR 32 [0 ffffffff 13 800] ------- [19:255 25:255 32 0] 1 [1 2] [0 2 0 0->0] [0 0 0 0->0]
r 0.079522839 _13_ RTR  --- 33 DSR 32 [0 ffffffff 13 800] ------- [19:255 25:255 32 0] 1 [1 2] [0 2 0 0->0] [0 0 0 0->0]
r 0.079522839 _23_ RTR  --- 33 DSR 32 [0 ffffffff 13 800] ------- [19:255 25:255 32 0] 1 [1 2] [0 2 0 0->0] [0 0 0 0->0]
f 0.079948556 _1_ RTR  --- 34 DSR 48 [0 ffffffff 6 800] ------- [6:255 29:255 32 0] 2 [1 2] [0 2 0 0->0] [0 0 0 0->0]
r 0.080530182 _38_ RTR  --- 41 DSR 32 [0 ffffffff 27 800] ------- [39:255 2:255 32 0] 1 [1 2] [0 2 0 0->0] [0 0 0 0->0]
r 0.080530182 _34_ RTR  --- 41 DSR 32 [0 ffffffff 27 800] ------- [39:255 2:255 32 0] 1 [1 2] [0 2 0 0->0] [0 0 0 0->0]
r 0.080530209 _33_ RTR  --- 41 DSR 32 [0 ffffffff 27 800] ------- [39:255 2:255 32 0] 1 [1 2] [0 2 0 0->0] [0 0 0 0->0]
s 0.080822447 _37_ RTR  --- 26 exp 100 [0 0 0 0] ------- [37:0 36:1 32 36] 
f 0.081093459 _7_ RTR  --- 34 DSR 48 [0 ffffffff 6 800] ------- [6:255 29:255 32 0] 2 [1 2] [0 2 0 0->0] [0 0 0 0->0]
r 0.081634242 _10_ RTR  --- 34 DSR 48 [0 ffffffff b 800] ------- [6:255 29:255 32 0] 2 [1 2] [0 2 0 0->0] [0 0 0 0->0]
r 0.081634242 _16_ RTR  --- 34 DSR 48 [0 ffffffff b 800] ------- [6:255 29:255 32 0] 2 [1 2] [0 2 0 0->0] [0 0 0 0->0]
r 0.081634270 _5_ RTR  --- 34 DSR 48 [0 ffffffff b 800] ------- [6:255 29:255 32 0] 2 [1 2] [0 2 0 0->0] [0 0 0 0->0]
r 0.081634270 _15_ RTR  --- 34 DSR 48 [0 ffffffff b 800] ------- [6:255 29:255 32 0] 2 [1 2] [0 2 0 0->0] [0 0 0 0->0]
f 0.081803870 _23_ RTR  --- 37 DSR 48 [0 ffffffff 18 800] ------- [24:255 20:255 32 0] 2 [1 2] [0 2 0 0->0] [0 0 0 0->0]
r 0.081823601 _1_ RTR  --- 34 DSR 48 [0 ffffffff 2 800] ------- [6:255 29:255 32 0] 2 [1 2] [0 2 0 0->0] [0 0 0 0->0]
r 0.081823601 _3_ RTR  --- 34 DSR 48 [0 ffffffff 2 800] ------- [6:255 29:255 32 0] 2 [1 2] [0 2 0 0->0] [0 0 0 0->0]
r 0.081823629 _8_ RTR  --- 34 DSR 48 [0 ffffffff 2 800] ------- [6:255 29:255 32 0] 2 [1 2] [0 2 0 0->0] [0 0 0 0->0]
f 0.082063054 _5_ RTR  --- 34 DSR 48 [0 ffffffff 6 800] ------- [6:255 29:255 32 0] 2 [1 2] [0 2 0 0->0] [0 0 0 0->0]
f 0.082128212 _0_ RTR  --- 34 DSR 48 [0 ffffffff 6 800] ------- [6:255 29:255 32 0] 2 [1 2] [0 2 0 0->0] [0 0 0 0->0]
f 0.082218145 _10_ RTR  --- 34 DSR 48 [0 ffffffff 6 800] ------- [6:255 29:255 32 0] 2 [1 2] [0 2 0 0->0] [0 0 0 0->0]
r 0.082371169 _13_ RTR  --- 37 DSR 48 [0 ffffffff 12 800] ------- [24:255 20:255 32 0] 2 [1 2] [0 2 0 0->0] [0 0 0 0->0]
r 0.082371169 _19_ RTR  --- 37 DSR 48 [0 ffffffff 12 800] ------- [24:255 20:255 32 0] 2 [1 2] [0 2 0 0->0] [0 0 0 0->0]
r 0.082371169 _23_ RTR  --- 37 DSR 48 [0 ffffffff 12 800] ------- [24:255 20:255 32 0] 2 [1 2] [0 2 0 0->0] [0 0 0 0->0]
r 0.082371197 _14_ RTR  --- 37 DSR 48 [0 ffffffff 12 800] ------- [24:255 20:255 32 0] 2 [1 2] [0 2 0 0->0] [0 0 0 0->0]
r 0.082371197 _22_ RTR  --- 37 DSR 48 [0 ffffffff 12 800] ------- [24:255 20:255 32 0] 2 [1 2] [0 2 0 0->0] [0 0 0 0->0]
r 0.082371197 _24_ RTR  --- 37 DSR 48 [0 ffffffff 12 800] ------- [24:255 20:255 32 0] 2 [1 2] [0 2 0 0->0] [0 0 0 0->0]
f 0.083128153 _29_ RTR  --- 37 DSR 48 [0 ffffffff 18 800] ------- [24:255 20:255 32 0] 2 [1 2] [0 2 0 0->0] [0 0 0 0->0]
r 0.084190623 _0_ RTR  --- 34 DSR 48 [0 ffffffff 1 800] ------- [6:255 29:255 32 0] 2 [1 2] [0 2 0 0->0] [0 0 0 0->0]
r 0.084190623 _2_ RTR  --- 34 DSR 48 [0 ffffffff 1 800] ------- [6:255 29:255 32 0] 2 [1 2] [0 2 0 0->0] [0 0 0 0->0]
r 0.084190650 _7_ RTR  --- 34 DSR 48 [0 ffffffff 1 800] ------- [6:255 29:255 32 0] 2 [1 2] [0 2 0 0->0] [0 0 0 0->0]
f 0.084444940 _15_ RTR  --- 34 DSR 68 [0 ffffffff b 800] ------- [6:255 29:255 32 0] 3 [1 2] [0 2 0 0->0] [0 0 0 0->0]
r 0.084765936 _22_ RTR  --- 37 DSR 48 [0 ffffffff 17 800] ------- [24:255 20:255 32 0] 2 [1 2] [0 2 0 0->0] [0 0 0 0->0]
r 0.084765936 _18_ RTR  --- 37 DSR 48 [0 ffffffff 17 800] ------- [24:255 20:255 32 0] 2 [1 2] [0 2 0 0->0] [0 0 0 0->0]
r 0.084765936 _24_ RTR  --- 37 DSR 48 [0 ffffffff 17 800] ------- [24:255 20:255 32 0] 2 [1 2] [0 2 0 0->0] [0 0 0 0->0]
r 0.084765936 _28_ RTR  --- 37 DSR 48 [0 ffffffff 17 800] ------- [24:255 20:255 32 0] 2 [1 2] [0 2 0 0->0] [0 0 0 0->0]
r 0.084765964 _19_ RTR  --- 37 DSR 48 [0 ffffffff 17 800] ------- [24:255 20:255 32 0] 2 [1 2] [0 2 0 0->0] [0 0 0 0->0]
r 0.084765964 _17_ RTR  --- 37 DSR 48 [0 ffffffff 17 800] ------- [24:255 20:255 32 0] 2 [1 2] [0 2 0 0->0] [0 0 0 0->0]
r 0.084765964 _27_ RTR  --- 37 DSR 48 [0 ffffffff 17 800] ------- [24:255 20:255 32 0] 2 [1 2] [0 2 0 0->0] [0 0 0 0->0]
r 0.084765964 _29_ RTR  --- 37 DSR 48 [0 ffffffff 17 800] ------- [24:255 20:255 32 0] 2 [1 2] [0 2 0 0->0] [0 0 0 0->0]
r 0.085584823 _15_ RTR  --- 36 DSR 32 [0 ffffffff a 800] ------- [10:255 0:255 32 0] 1 [1 2] [0 2 0 0->0] [0 0 0 0->0]
s 0.086077917 _39_ RTR  --- 43 DSR 32 [0 0 0 0] ------- [39:255 22:255 32 0] 1 [1 3] [0 3 0 0->0] [0 0 0 0->0]
r 0.086340687 _7_ RTR  --- 35 DSR 32 [0 ffffffff c 800] ------- [12:255 36:255 32 0] 1 [1 2] [0 2 0 0->0] [0 0 0 0->0]
r 0.086340687 _17_ RTR  --- 35 DSR 32 [0 ffffffff c 800] ------- [12:255 36:255 32 0] 1 [1 2] [0 2 0 0->0] [0 0 0 0->0]
r 0.086340715 _8_ RTR  --- 35 DSR 32 [0 ffffffff c 800] ------- [12:255 36:255 32 0] 1 [1 2] [0 2 0 0->0] [0 0 0 0->0]
f 0.086601705 _28_ RTR  --- 37 DSR 48 [0 ffffffff 18 800] ------- [24:255 20:255 32 0] 2 [1 2] [0 2 0 0->0] [0 0 0 0->0]
r 0.087010279 _1_ RTR  --- 34 DSR 48 [0 ffffffff 0 800] ------- [6:255 29:255 32 0] 2 [1 2] [0 2 0 0->0] [0 0 0 0->0]
r 0.087042811 _14_ RTR  --- 37 DSR 48 [0 ffffffff 13 800] ------- [24:255 20:255 32 0] 2 [1 2] [0 2 0 0->0] [0 0 0 0->0]
r 0.087272514 _36_ RTR  --- 26 exp 100 [0 24 25 800] ------- [37:0 36:1 32 36] 
r 0.087272514 _36_ AGT  --- 26 exp 64 [0 24 25 800] ------- [37:0 36:1 32 36] 
f 0.087322676 _27_ RTR  --- 37 DSR 68 [0 ffffffff 17 800] ------- [24:255 20:255 32 0] 3 [1 2] [0 2 0 0->0] [0 0 0 0->0]
f 0.087403127 _13_ RTR  --- 37 DSR 68 [0 ffffffff 12 800] ------- [24:255 20:255 32 0] 3 [1 2] [0 2 0 0->0] [0 0 0 0->0]
f 0.087414158 _17_ RTR  --- 35 DSR 48 [0 ffffffff c 800] ------- [12:255 36:255 32 0] 2 [1 2] [0 2 0 0->0] [0 0 0 0->0]
r 0.087690220 _28_ RTR  --- 37 DSR 48 [0 ffffffff 1d 800] ------- [24:255 20:255 32 0] 2 [1 2] [0 2 0 0->0] [0 0 0 0->0]
r 0.087690220 _34_ RTR  --- 37 DSR 48 [0 ffffffff 1d 800] ------- [24:255 20:255 32 0] 2 [1 2] [0 2 0 0->0] [0 0 0 0->0]
f 0.087748216 _22_ RTR  --- 37 DSR 68 [0 ffffffff 12 800] ------- [24:255 20:255 32 0] 3 [1 2] [0 2 0 0->0] [0 0 0 0->0]
f 0.087774262 _3_ RTR  --- 34 DSR 68 [0 ffffffff 2 800] ------- [6:255 29:255 32 0] 3 [1 2] [0 2 0 0->0] [0 0 0 0->0]
f 0.088253411 _7_ RTR  --- 35 DSR 48 [0 ffffffff c 800] ------- [12:255 36:255 32 0] 2 [1 2] [0 2 0 0->0] [0 0 0 0->0]
f 0.088739353 _16_ RTR  --- 34 DSR 68 [0 ffffffff b 800] ------- [6:255 29:255 32 0] 3 [1 2] [0 2 0 0->0] [0 0 0 0->0]
f 0.088963499 _14_ RTR  --- 37 DSR 68 [0 ffffffff 12 800] ------- [24:255 20:255 32 0] 3 [1 2] [0 2 0 0->0] [0 0 0 0->0]
r 0.089167984 _38_ RTR  --- 43 DSR 32 [0 ffffffff 27 800] ------- [39:255 22:255 32 0] 1 [1 3] [0 3 0 0->0] [0 0 0 0->0]
r 0.089167984 _34_ RTR  --- 43 DSR 32 [0 ffffffff 27 800] ------- [39:255 22:255 32 0] 1 [1 3] [0 3 0 0->0] [0 0 0 0->0]
r 0.089168011 _33_ RTR  --- 43 DSR 32 [0 ffffffff 27 800] ------- [39:255 22:255 32 0] 1 [1 3] [0 3 0 0->0] [0 0 0 0->0]
r 0.089252687 _7_ RTR  --- 34 DSR 48 [0 ffffffff c 800] ------- [6:255 29:255 32 0] 2 [1 2] [0 2 0 0->0] [0 0 0 0->0]
r 0.089252687 _13_ RTR  --- 34 DSR 48 [0 ffffffff c 800] ------- [6:255 29:255 32 0] 2 [1 2] [0 2 0 0->0] [0 0 0 0->0]
r 0.089252687 _17_ RTR  --- 34 DSR 48 [0 ffffffff c 800] ------- [6:255 29:255 32 0] 2 [1 2] [0 2 0 0->0] [0 0 0 0->0]
r 0.089252715 _8_ RTR  --- 34 DSR 48 [0 ffffffff c 800] ------- [6:255 29:255 32 0] 2 [1 2] [0 2 0 0->0] [0 0 0 0->0]
r 0.089252715 _6_ RTR  --- 34 DSR 48 [0 ffffffff c 800] ------- [6:255 29:255 32 0] 2 [1 2] [0 2 0 0->0] [0 0 0 0->0]
r 0.089252715 _18_ RTR  --- 34 DSR 48 [0 ffffffff c 800] ------- [6:255 29:255 32 0] 2 [1 2] [0 2 0 0->0] [0 0 0 0->0]
f 0.089301843 _15_ RTR  --- 36 DSR 48 [0 ffffffff a 800] ------- [10:255 0:255 32 0] 2 [1 2] [0 2 0 0->0] [0 0 0 0->0]
f 0.089362453 _13_ RTR  --- 34 DSR 68 [0 ffffffff c 800] ------- [6:255 29:255 32 0] 3 [1 2] [0 2 0 0->0] [0 0 0 0->0]
f 0.089420096 _17_ RTR  --- 37 DSR 68 [0 ffffffff 17 800] ------- [24:255 20:255 32 0] 3 [1 2] [0 2 0 0->0] [0 0 0 0->0]
r 0.089455007 _10_ RTR  --- 34 DSR 68 [0 ffffffff f 800] ------- [6:255 29:255 32 0] 3 [1 2] [0 2 0 0->0] [0 0 0 0->0]
r 0.089455007 _20_ RTR  --- 34 DSR 68 [0 ffffffff f 800] ------- [6:255 29:255 32 0] 3 [1 2] [0 2 0 0->0] [0 0 0 0->0]
r 0.089455034 _21_ RTR  --- 34 DSR 68 [0 ffffffff f 800] ------- [6:255 29:255 32 0] 3 [1 2] [0 2 0 0->0] [0 0 0 0->0]
f 0.089857844 _8_ RTR  --- 34 DSR 68 [0 ffffffff 2 800] ------- [6:255 29:255 32 0] 3 [1 2] [0 2 0 0->0] [0 0 0 0->0]
f 0.089869579 _8_ RTR  --- 35 DSR 48 [0 ffffffff c 800] ------- [12:255 36:255 32 0] 2 [1 2] [0 2 0 0->0] [0 0 0 0->0]
f 0.090821548 _34_ RTR  --- 37 DSR 68 [0 ffffffff 1d 800] ------- [24:255 20:255 32 0] 3 [1 2] [0 2 0 0->0] [0 0 0 0->0]
r 0.091803772 _27_ RTR  --- 37 DSR 48 [0 ffffffff 1c 800] ------- [24:255 20:255 32 0] 2 [1 2] [0 2 0 0->0] [0 0 0 0->0]
r 0.091803772 _29_ RTR  --- 37 DSR 48 [0 ffffffff 1c 800] ------- [24:255 20:255 32 0] 2 [1 2] [0 2 0 0->0] [0 0 0 0->0]
r 0.091803772 _33_ RTR  --- 37 DSR 48 [0 ffffffff 1c 800] ------- [24:255 20:255 32 0] 2 [1 2] [0 2 0 0->0] [0 0 0 0->0]
r 0.091803799 _24_ RTR  --- 37 DSR 48 [0 ffffffff 1c 800] ------- [24:255 20:255 32 0] 2 [1 2] [0 2 0 0->0] [0 0 0 0->0]
r 0.091803799 _32_ RTR  --- 37 DSR 48 [0 ffffffff 1c 800] ------- [24:255 20:255 32 0] 2 [1 2] [0 2 0 0->0] [0 0 0 0->0]
r 0.091803799 _34_ RTR  --- 37 DSR 48 [0 ffffffff 1c 800] ------- [24:255 20:255 32 0] 2 [1 2] [0 2 0 0->0] [0 0 0 0->0]
f 0.092063788 _34_ RTR  --- 43 DSR 48 [0 ffffffff 27 800] ------- [39:255 22:255 32 0] 2 [1 3] [0 3 0 0->0] [0 0 0 0->0]
r 0.092144823 _5_ RTR  --- 34 DSR 48 [0 ffffffff a 800] ------- [6:255 29:255 32 0] 2 [1 2] [0 2 0 0->0] [0 0 0 0->0]
r 0.092144823 _15_ RTR  --- 34 DSR 48 [0 ffffffff a 800] ------- [6:255 29:255 32 0] 2 [1 2] [0 2 0 0->0] [0 0 0 0->0]
r 0.092144850 _6_ RTR  --- 34 DSR 48 [0 ffffffff a 800] ------- [6:255 29:255 32 0] 2 [1 2] [0 2 0 0->0] [0 0 0 0->0]
r 0.092296224 _12_ RTR  --- 35 DSR 48 [0 ffffffff 11 800] ------- [12:255 36:255 32 0] 2 [1 2] [0 2 0 0->0] [0 0 0 0->0]
r 0.092296252 _21_ RTR  --- 35 DSR 48 [0 ffffffff 11 800] ------- [12:255 36:255 32 0] 2 [1 2] [0 2 0 0->0] [0 0 0 0->0]
r 0.092336329 _2_ RTR  --- 34 DSR 68 [0 ffffffff 3 800] ------- [6:255 29:255 32 0] 3 [1 2] [0 2 0 0->0] [0 0 0 0->0]
r 0.092336329 _4_ RTR  --- 34 DSR 68 [0 ffffffff 3 800] ------- [6:255 29:255 32 0] 3 [1 2] [0 2 0 0->0] [0 0 0 0->0]
r 0.092336356 _7_ RTR  --- 34 DSR 68 [0 ffffffff 3 800] ------- [6:255 29:255 32 0] 3 [1 2] [0 2 0 0->0] [0 0 0 0->0]
f 0.092774271 _21_ RTR  --- 34 DSR 92 [0 ffffffff f 800] ------- [6:255 29:255 32 0] 4 [1 2] [0 2 0 0->0] [0 0 0 0->0]
f 0.092965104 _18_ RTR  --- 34 DSR 68 [0 ffffffff c 800] ------- [6:255 29:255 32 0] 3 [1 2] [0 2 0 0->0] [0 0 0 0->0]
f 0.093133708 _38_ RTR  --- 43 DSR 48 [0 ffffffff 27 800] ------- [39:255 22:255 32 0] 2 [1 3] [0 3 0 0->0] [0 0 0 0->0]
f 0.093371909 _33_ RTR  --- 43 DSR 48 [0 ffffffff 27 800] ------- [39:255 22:255 32 0] 2 [1 3] [0 3 0 0->0] [0 0 0 0->0]
r 0.093845565 _19_ RTR  --- 37 DSR 68 [0 ffffffff e 800] ------- [24:255 20:255 32 0] 3 [1 2] [0 2 0 0->0] [0 0 0 0->0]
r 0.094503910 _10_ RTR  --- 36 DSR 48 [0 ffffffff f 800] ------- [10:255 0:255 32 0] 2 [1 2] [0 2 0 0->0] [0 0 0 0->0]
r 0.094503910 _16_ RTR  --- 36 DSR 48 [0 ffffffff f 800] ------- [10:255 0:255 32 0] 2 [1 2] [0 2 0 0->0] [0 0 0 0->0]
r 0.094503910 _20_ RTR  --- 36 DSR 48 [0 ffffffff f 800] ------- [10:255 0:255 32 0] 2 [1 2] [0 2 0 0->0] [0 0 0 0->0]
r 0.094503937 _11_ RTR  --- 36 DSR 48 [0 ffffffff f 800] ------- [10:255 0:255 32 0] 2 [1 2] [0 2 0 0->0] [0 0 0 0->0]
r 0.094503937 _21_ RTR  --- 36 DSR 48 [0 ffffffff f 800] ------- [10:255 0:255 32 0] 2 [1 2] [0 2 0 0->0] [0 0 0 0->0]
f 0.094622044 _17_ RTR  --- 34 DSR 68 [0 ffffffff c 800] ------- [6:255 29:255 32 0] 3 [1 2] [0 2 0 0->0] [0 0 0 0->0]
f 0.096221296 _33_ RTR  --- 37 DSR 68 [0 ffffffff 1c 800] ------- [24:255 20:255 32 0] 3 [1 2] [0 2 0 0->0] [0 0 0 0->0]
f 0.096624815 _20_ RTR  --- 36 DSR 68 [0 ffffffff f 800] ------- [10:255 0:255 32 0] 3 [1 2] [0 2 0 0->0] [0 0 0 0->0]
r 0.096663615 _29_ RTR  --- 37 DSR 68 [0 ffffffff 22 800] ------- [24:255 20:255 32 0] 3 [1 2] [0 2 0 0->0] [0 0 0 0->0]
r 0.096663615 _39_ RTR  --- 37 DSR 68 [0 ffffffff 22 800] ------- [24:255 20:255 32 0] 3 [1 2] [0 2 0 0->0] [0 0 0 0->0]
r 0.096663643 _38_ RTR  --- 37 DSR 68 [0 ffffffff 22 800] ------- [24:255 20:255 32 0] 3 [1 2] [0 2 0 0->0] [0 0 0 0->0]
r 0.097128224 _16_ RTR  --- 37 DSR 68 [0 ffffffff 11 800] ------- [24:255 20:255 32 0] 3 [1 2] [0 2 0 0->0] [0 0 0 0->0]
r 0.097128224 _18_ RTR  --- 37 DSR 68 [0 ffffffff 11 800] ------- [24:255 20:255 32 0] 3 [1 2] [0 2 0 0->0] [0 0 0 0->0]
r 0.097128252 _11_ RTR  --- 37 DSR 68 [0 ffffffff 11 800] ------- [24:255 20:255 32 0] 3 [1 2] [0 2 0 0->0] [0 0 0 0->0]
s 0.097162258 _33_ AGT  --- 46 exp 64 [0 0 0 0] ------- [33:0 24:0 32 0] 
r 0.097162258 _33_ RTR  --- 46 exp 64 [0 0 0 0] ------- [33:0 24:0 32 0] 
f 0.097374285 _20_ RTR  --- 34 DSR 92 [0 ffffffff f 800] ------- [6:255 29:255 32 0] 4 [1 2] [0 2 0 0->0] [0 0 0 0->0]
f 0.097520698 _39_ RTR  --- 37 DSR 92 [0 ffffffff 22 800] ------- [24:255 20:255 32 0] 4 [1 2] [0 2 0 0->0] [0 0 0 0->0]
f 0.097580346 _38_ RTR  --- 37 DSR 92 [0 ffffffff 22 800] ------- [24:255 20:255 32 0] 4 [1 2] [0 2 0 0->0] [0 0 0 0->0]
r 0.097772743 _26_ RTR  --- 37 DSR 68 [0 ffffffff 1b 800] ------- [24:255 20:255 32 0] 3 [1 2] [0 2 0 0->0] [0 0 0 0->0]
r 0.097772743 _32_ RTR  --- 37 DSR 68 [0 ffffffff 1b 800] ------- [24:255 20:255 32 0] 3 [1 2] [0 2 0 0->0] [0 0 0 0->0]
r 0.097772771 _31_ RTR  --- 37 DSR 68 [0 ffffffff 1b 800] ------- [24:255 20:255 32 0] 3 [1 2] [0 2 0 0->0] [0 0 0 0->0]
r 0.099027911 _7_ RTR  --- 34 DSR 68 [0 ffffffff 8 800] ------- [6:255 29:255 32 0] 3 [1 2] [0 2 0 0->0] [0 0 0 0->0]
r 0.099027911 _3_ RTR  --- 34 DSR 68 [0 ffffffff 8 800] ------- [6:255 29:255 32 0] 3 [1 2] [0 2 0 0->0] [0 0 0 0->0]
r 0.099027911 _9_ RTR  --- 34 DSR 68 [0 ffffffff 8 800] ------- [6:255 29:255 32 0] 3 [1 2] [0 2 0 0->0] [0 0 0 0->0]
r 0.099027938 _4_ RTR  --- 34 DSR 68 [0 ffffffff 8 800] ------- [6:255 29:255 32 0] 3 [1 2] [0 2 0 0->0] [0 0 0 0->0]
r 0.099027938 _2_ RTR  --- 34 DSR 68 [0 ffffffff 8 800] ------- [6:255 29:255 32 0] 3 [1 2] [0 2 0 0->0] [0 0 0 0->0]
f 0.099166036 _4_ RTR  --- 34 DSR 92 [0 ffffffff 3 800] ------- [6:255 29:255 32 0] 4 [1 2] [0 2 0 0->0] [0 0 0 0->0]
r 0.099575615 _29_ RTR  --- 43 DSR 48 [0 ffffffff 22 800] ------- [39:255 22:255 32 0] 2 [1 3] [0 3 0 0->0] [0 0 0 0->0]
r 0.099575615 _39_ RTR  --- 43 DSR 48 [0 ffffffff 22 800] ------- [39:255 22:255 32 0] 2 [1 3] [0 3 0 0->0] [0 0 0 0->0]
r 0.099575643 _38_ RTR  --- 43 DSR 48 [0 ffffffff 22 800] ------- [39:255 22:255 32 0] 2 [1 3] [0 3 0 0->0] [0 0 0 0->0]
f 0.099896471 _32_ RTR  --- 37 DSR 68 [0 ffffffff 1c 800] ------- [24:255 20:255 32 0] 3 [1 2] [0 2 0 0->0] [0 0 0 0->0]
f 0.099985606 _26_ RTR  --- 37 DSR 92 [0 ffffffff 1b 800] ------- [24:255 20:255 32 0] 4 [1 2] [0 2 0 0->0] [0 0 0 0->0]
f 0.100109635 _29_ RTR  --- 43 DSR 68 [0 ffffffff 22 800] ------- [39:255 22:255 32 0] 3 [1 3] [0 3 0 0->0] [0 0 0 0->0]
r 0.100257120 _0_ RTR  --- 34 DSR 48 [0 ffffffff 5 800] ------- [6:255 29:255 32 0] 2 [1 2] [0 2 0 0->0] [0 0 0 0->0]
r 0.100257120 _6_ RTR  --- 34 DSR 48 [0 ffffffff 5 800] ------- [6:255 29:255 32 0] 2 [1 2] [0 2 0 0->0] [0 0 0 0->0]
r 0.100257120 _10_ RTR  --- 34 DSR 48 [0 ffffffff 5 800] ------- [6:255 29:255 32 0] 2 [1 2] [0 2 0 0->0] [0 0 0 0->0]
r 0.100257148 _1_ RTR  --- 34 DSR 48 [0 ffffffff 5 800] ------- [6:255 29:255 32 0] 2 [1 2] [0 2 0 0->0] [0 0 0 0->0]
r 0.100257148 _11_ RTR  --- 34 DSR 48 [0 ffffffff 5 800] ------- [6:255 29:255 32 0] 2 [1 2] [0 2 0 0->0] [0 0 0 0->0]
r 0.100663171 _17_ RTR  --- 34 DSR 68 [0 ffffffff 12 800] ------- [6:255 29:255 32 0] 3 [1 2] [0 2 0 0->0] [0 0 0 0->0]
r 0.100663171 _19_ RTR  --- 34 DSR 68 [0 ffffffff 12 800] ------- [6:255 29:255 32 0] 3 [1 2] [0 2 0 0->0] [0 0 0 0->0]
r 0.100663171 _23_ RTR  --- 34 DSR 68 [0 ffffffff 12 800] ------- [6:255 29:255 32 0] 3 [1 2] [0 2 0 0->0] [0 0 0 0->0]
r 0.100663199 _22_ RTR  --- 34 DSR 68 [0 ffffffff 12 800] ------- [6:255 29:255 32 0] 3 [1 2] [0 2 0 0->0] [0 0 0 0->0]
r 0.100663199 _24_ RTR  --- 34 DSR 68 [0 ffffffff 12 800] ------- [6:255 29:255 32 0] 3 [1 2] [0 2 0 0->0] [0 0 0 0->0]
r 0.100866882 _15_ RTR  --- 36 DSR 68 [0 ffffffff 14 800] ------- [10:255 0:255 32 0] 3 [1 2] [0 2 0 0->0] [0 0 0 0->0]
r 0.100866882 _21_ RTR  --- 36 DSR 68 [0 ffffffff 14 800] ------- [10:255 0:255 32 0] 3 [1 2] [0 2 0 0->0] [0 0 0 0->0]