s 0.075651720 _19_ MAC  --- 1 DSR 39 [0 ffffffff 13 800] ------- [19:255 6:255 32 0] 1 [1 1] [0 1 0 0->0] [0 0 0 0->0]
s 0.129276068 _19_ MAC  --- 3 DSR 39 [0 ffffffff 13 800] ------- [19:255 6:255 32 0] 1 [1 2] [0 2 0 0->0] [0 0 0 0->0]
s 0.134204073 _24_ MAC  --- 3 DSR 55 [0 ffffffff 18 800] ------- [19:255 6:255 32 0] 2 [1 2] [0 2 0 0->0] [0 0 0 0->0]
s 0.137768479 _23_ MAC  --- 3 DSR 55 [0 ffffffff 17 800] ------- [19:255 6:255 32 0] 2 [1 2] [0 2 0 0->0] [0 0 0 0->0]
s 0.141176403 _13_ MAC  --- 3 DSR 55 [0 ffffffff d 800] ------- [19:255 6:255 32 0] 2 [1 2] [0 2 0 0->0] [0 0 0 0->0]
s 0.143471206 _14_ MAC  --- 3 DSR 55 [0 ffffffff e 800] ------- [19:255 6:255 32 0] 2 [1 2] [0 2 0 0->0] [0 0 0 0->0]
s 0.143679155 _22_ MAC  --- 3 DSR 75 [0 ffffffff 16 800] ------- [19:255 6:255 32 0] 3 [1 2] [0 2 0 0->0] [0 0 0 0->0]
s 0.145834227 _7_ MAC  --- 3 DSR 75 [0 ffffffff 7 800] ------- [19:255 6:255 32 0] 3 [1 2] [0 2 0 0->0] [0 0 0 0->0]
s 0.147027539 _9_ MAC  --- 3 DSR 75 [0 ffffffff 9 800] ------- [19:255 6:255 32 0] 3 [1 2] [0 2 0 0->0] [0 0 0 0->0]
s 0.147893735 _17_ MAC  --- 3 DSR 75 [0 ffffffff 11 800] ------- [19:255 6:255 32 0] 3 [1 2] [0 2 0 0->0] [0 0 0 0->0]
s 0.151306964 _8_ MAC  --- 3 DSR 75 [0 ffffffff 8 800] ------- [19:255 6:255 32 0] 3 [1 2] [0 2 0 0->0] [0 0 0 0->0]
s 0.153129456 _16_ MAC  --- 3 DSR 99 [0 ffffffff 10 800] ------- [19:255 6:255 32 0] 4 [1 2] [0 2 0 0->0] [0 0 0 0->0]
s 0.154679330 _18_ MAC  --- 3 DSR 55 [0 ffffffff 12 800] ------- [19:255 6:255 32 0] 2 [1 2] [0 2 0 0->0] [0 0 0 0->0]
s 0.156861675 _21_ MAC  --- 3 DSR 99 [0 ffffffff 15 800] ------- [19:255 6:255 32 0] 4 [1 2] [0 2 0 0->0] [0 0 0 0->0]
s 0.157685075 _6_ MAC  --- 0 ARP 35 [0 ffffffff 6 806] ------- [REQUEST 6/6 0/7]
s 0.159681498 _3_ MAC  --- 3 DSR 99 [0 ffffffff 3 800] ------- [19:255 6:255 32 0] 4 [1 2] [0 2 0 0->0] [0 0 0 0->0]
s 0.159735227 _2_ MAC  --- 3 DSR 99 [0 ffffffff 2 800] ------- [19:255 6:255 32 0] 4 [1 2] [0 2 0 0->0] [0 0 0 0->0]
s 0.160638755 _12_ MAC  --- 3 DSR 75 [0 ffffffff c 800] ------- [19:255 6:255 32 0] 3 [1 2] [0 2 0 0->0] [0 0 0 0->0]
s 0.161026865 _15_ MAC  --- 3 DSR 127 [0 ffffffff f 800] ------- [19:255 6:255 32 0] 5 [1 2] [0 2 0 0->0] [0 0 0 0->0]
s 0.164250141 _7_ MAC  --- 0 ARP 35 [0 6 7 806] ------- [REPLY 7/7 6/6]
s 0.165754208 _6_ MAC  --- 0 ACK 5 [0 7 6 0] 
s 0.165861912 _4_ MAC  --- 3 DSR 99 [0 ffffffff 4 800] ------- [19:255 6:255 32 0] 4 [1 2] [0 2 0 0->0] [0 0 0 0->0]
s 0.166781164 _11_ MAC  --- 3 DSR 127 [0 ffffffff b 800] ------- [19:255 6:255 32 0] 5 [1 2] [0 2 0 0->0] [0 0 0 0->0]
s 0.166906049 _1_ MAC  --- 3 DSR 99 [0 ffffffff 1 800] ------- [19:255 6:255 32 0] 4 [1 2] [0 2 0 0->0] [0 0 0 0->0]
s 0.168389979 _20_ MAC  --- 3 DSR 127 [0 ffffffff 14 800] ------- [19:255 6:255 32 0] 5 [1 2] [0 2 0 0->0] [0 0 0 0->0]
s 0.172314360 _10_ MAC  --- 3 DSR 127 [0 ffffffff a 800] ------- [19:255 6:255 32 0] 5 [1 2] [0 2 0 0->0] [0 0 0 0->0]
s 0.176628439 _0_ MAC  --- 3 DSR 127 [0 ffffffff 0 800] ------- [19:255 6:255 32 0] 5 [1 2] [0 2 0 0->0] [0 0 0 0->0]
s 0.182495208 _6_ MAC  --- 4 DSR 67 [0 7 6 800] ------- [6:255 19:255 254 7] 4 [0 2] [1 2 4 19->6] [0 0 0 0->0]
s 0.185023275 _7_ MAC  --- 4 ACK 5 [0 6 7 0] 
s 0.185695341 _6_ MAC  --- 0 ARP 35 [0 ffffffff 6 806] ------- [REQUEST 6/6 0/10]
s 0.188093275 _7_ MAC  --- 0 ARP 35 [0 ffffffff 7 806] ------- [REQUEST 7/7 0/13]
s 0.189361188 _5_ MAC  --- 3 DSR 159 [0 ffffffff 5 800] ------- [19:255 6:255 32 0] 6 [1 2] [0 2 0 0->0] [0 0 0 0->0]
s 0.189572436 _10_ MAC  --- 0 ARP 35 [0 6 a 806] ------- [REPLY 10/10 6/6]
s 0.191010369 _13_ MAC  --- 0 ARP 35 [0 7 d 806] ------- [REPLY 13/13 7/7]
s 0.191076530 _6_ MAC  --- 0 ACK 5 [0 a 6 0] 
s 0.192708530 _6_ MAC  --- 0 ARP 35 [0 ffffffff 6 806] ------- [REQUEST 6/6 0/0]
s 0.194146369 _13_ MAC  --- 0 ARP 35 [0 7 d 806] ------- [REPLY 13/13 7/7]
s 0.194985624 _0_ MAC  --- 0 ARP 35 [0 6 0 806] ------- [REPLY 0/0 6/6]
s 0.195650463 _7_ MAC  --- 0 ACK 5 [0 d 7 0] 
s 0.198628530 _6_ MAC  --- 6 DSR 83 [0 a 6 800] ------- [6:255 19:255 254 10] 6 [0 2] [1 2 6 19->6] [0 0 0 0->0]
s 0.198761624 _0_ MAC  --- 0 ARP 35 [0 6 0 806] ------- [REPLY 0/0 6/6]
s 0.201668624 _10_ MAC  --- 6 ACK 5 [0 6 a 0] 
s 0.203943463 _7_ MAC  --- 4 DSR 67 [0 d 7 800] ------- [6:255 19:255 253 13] 4 [0 2] [1 2 4 19->6] [0 0 0 0->0]
s 0.205250624 _10_ MAC  --- 0 ARP 35 [0 ffffffff a 806] ------- [REQUEST 10/10 0/16]
s 0.206471558 _13_ MAC  --- 4 ACK 5 [0 7 d 0] 
s 0.206505624 _0_ MAC  --- 0 ARP 35 [0 6 0 806] ------- [REPLY 0/0 6/6]
s 0.208167719 _16_ MAC  --- 0 ARP 35 [0 a 10 806] ------- [REPLY 16/16 10/10]
s 0.209413558 _13_ MAC  --- 0 ARP 35 [0 ffffffff d 806] ------- [REQUEST 13/13 0/19]
s 0.209671813 _10_ MAC  --- 0 ACK 5 [0 10 a 0] 
s 0.209961624 _0_ MAC  --- 0 ARP 35 [0 6 0 806] ------- [REPLY 0/0 6/6]
s 0.211948813 _10_ MAC  --- 6 DSR 83 [0 10 a 800] ------- [6:255 19:255 253 16] 6 [0 2] [1 2 6 19->6] [0 0 0 0->0]
s 0.213930652 _19_ MAC  --- 0 ARP 35 [0 d 13 806] ------- [REPLY 19/19 13/13]
s 0.214988907 _16_ MAC  --- 6 ACK 5 [0 a 10 0] 
s 0.215434746 _13_ MAC  --- 0 ACK 5 [0 13 d 0] 
s 0.216970907 _16_ MAC  --- 0 ARP 35 [0 ffffffff 10 806] ------- [REQUEST 16/16 0/22]
s 0.218351746 _13_ MAC  --- 4 DSR 67 [0 13 d 800] ------- [6:255 19:255 252 19] 4 [0 2] [1 2 4 19->6] [0 0 0 0->0]
s 0.220208001 _22_ MAC  --- 0 ARP 35 [0 10 16 806] ------- [REPLY 22/22 16/16]
s 0.220879840 _19_ MAC  --- 4 ACK 5 [0 d 13 0] 
s 0.221712096 _16_ MAC  --- 0 ACK 5 [0 16 10 0] 
s 0.223201840 _19_ MAC  --- 0 exp 121 [0 d 13 800] ------- [19:0 6:0 32 13] 
s 0.223669096 _16_ MAC  --- 6 DSR 83 [0 16 10 800] ------- [6:255 19:255 252 22] 6 [0 2] [1 2 6 19->6] [0 0 0 0->0]
s 0.226709190 _22_ MAC  --- 6 ACK 5 [0 10 16 0] 
s 0.227457935 _13_ MAC  --- 0 ACK 5 [0 13 d 0] 
s 0.228371190 _22_ MAC  --- 0 ARP 35 [0 ffffffff 16 806] ------- [REQUEST 22/22 0/23]
s 0.230739935 _13_ MAC  --- 0 exp 121 [0 7 d 800] ------- [19:0 6:0 31 7] 
s 0.232568257 _23_ MAC  --- 0 ARP 35 [0 16 17 806] ------- [REPLY 23/23 22/22]
s 0.234072323 _22_ MAC  --- 0 ACK 5 [0 17 16 0] 
s 0.234996029 _7_ MAC  --- 0 ACK 5 [0 d 7 0] 
s 0.236029323 _22_ MAC  --- 6 DSR 83 [0 17 16 800] ------- [6:255 19:255 251 23] 6 [0 2] [1 2 6 19->6] [0 0 0 0->0]
s 0.238598029 _7_ MAC  --- 0 exp 121 [0 6 7 800] ------- [19:0 6:0 30 6] 
s 0.239069390 _23_ MAC  --- 6 ACK 5 [0 16 17 0] 
s 0.241691390 _23_ MAC  --- 0 ARP 35 [0 ffffffff 17 806] ------- [REQUEST 23/23 0/19]
s 0.242854096 _6_ MAC  --- 0 ACK 5 [0 7 6 0] 
s 0.245568484 _19_ MAC  --- 0 ARP 35 [0 17 13 806] ------- [REPLY 19/19 23/23]
s 0.247072579 _23_ MAC  --- 0 ACK 5 [0 13 17 0] 
s 0.249989579 _23_ MAC  --- 6 DSR 83 [0 13 17 800] ------- [6:255 19:255 250 19] 6 [0 2] [1 2 6 19->6] [0 0 0 0->0]
s 0.253029673 _19_ MAC  --- 6 ACK 5 [0 17 13 0] 
s 0.347510446 _10_ MAC  --- 10 DSR 39 [0 ffffffff a 800] ------- [10:255 4:255 32 0] 1 [1 1] [0 1 0 0->0] [0 0 0 0->0]
s 0.391881957 _10_ MAC  --- 12 DSR 39 [0 ffffffff a 800] ------- [10:255 4:255 32 0] 1 [1 2] [0 2 0 0->0] [0 0 0 0->0]
s 0.396528755 _6_ MAC  --- 12 DSR 55 [0 ffffffff 6 800] ------- [10:255 4:255 32 0] 2 [1 2] [0 2 0 0->0] [0 0 0 0->0]
s 0.397429106 _15_ MAC  --- 12 DSR 55 [0 ffffffff f 800] ------- [10:255 4:255 32 0] 2 [1 2] [0 2 0 0->0] [0 0 0 0->0]
s 0.402286656 _11_ MAC  --- 12 DSR 55 [0 ffffffff b 800] ------- [10:255 4:255 32 0] 2 [1 2] [0 2 0 0->0] [0 0 0 0->0]
s 0.402343684 _1_ MAC  --- 12 DSR 75 [0 ffffffff 1 800] ------- [10:255 4:255 32 0] 3 [1 2] [0 2 0 0->0] [0 0 0 0->0]
s 0.402448898 _16_ MAC  --- 12 DSR 55 [0 ffffffff 10 800] ------- [10:255 4:255 32 0] 2 [1 2] [0 2 0 0->0] [0 0 0 0->0]
s 0.406359961 _12_ MAC  --- 12 DSR 75 [0 ffffffff c 800] ------- [10:255 4:255 32 0] 3 [1 2] [0 2 0 0->0] [0 0 0 0->0]
s 0.406689052 _0_ MAC  --- 12 DSR 75 [0 ffffffff 0 800] ------- [10:255 4:255 32 0] 3 [1 2] [0 2 0 0->0] [0 0 0 0->0]
s 0.407024567 _2_ MAC  --- 12 DSR 75 [0 ffffffff 2 800] ------- [10:255 4:255 32 0] 3 [1 2] [0 2 0 0->0] [0 0 0 0->0]
s 0.409506572 _21_ MAC  --- 12 DSR 75 [0 ffffffff 15 800] ------- [10:255 4:255 32 0] 3 [1 2] [0 2 0 0->0] [0 0 0 0->0]
s 0.411925378 _3_ MAC  --- 12 DSR 99 [0 ffffffff 3 800] ------- [10:255 4:255 32 0] 4 [1 2] [0 2 0 0->0] [0 0 0 0->0]
s 0.412948840 _22_ MAC  --- 12 DSR 75 [0 ffffffff 16 800] ------- [10:255 4:255 32 0] 3 [1 2] [0 2 0 0->0] [0 0 0 0->0]
s 0.413353563 _20_ MAC  --- 12 DSR 75 [0 ffffffff 14 800] ------- [10:255 4:255 32 0] 3 [1 2] [0 2 0 0->0] [0 0 0 0->0]
s 0.415906512 _7_ MAC  --- 12 DSR 75 [0 ffffffff 7 800] ------- [10:255 4:255 32 0] 3 [1 2] [0 2 0 0->0] [0 0 0 0->0]
s 0.416033217 _18_ MAC  --- 12 DSR 99 [0 ffffffff 12 800] ------- [10:255 4:255 32 0] 4 [1 2] [0 2 0 0->0] [0 0 0 0->0]
s 0.419714042 _13_ MAC  --- 12 DSR 99 [0 ffffffff d 800] ------- [10:255 4:255 32 0] 4 [1 2] [0 2 0 0->0] [0 0 0 0->0]
s 0.420569513 _23_ MAC  --- 12 DSR 99 [0 ffffffff 17 800] ------- [10:255 4:255 32 0] 4 [1 2] [0 2 0 0->0] [0 0 0 0->0]
s 0.420962356 _4_ MAC  --- 0 ARP 35 [0 ffffffff 4 806] ------- [REQUEST 4/4 0/3]
s 0.423562722 _8_ MAC  --- 12 DSR 127 [0 ffffffff 8 800] ------- [10:255 4:255 32 0] 5 [1 2] [0 2 0 0->0] [0 0 0 0->0]
s 0.424729881 _24_ MAC  --- 12 DSR 127 [0 ffffffff 18 800] ------- [10:255 4:255 32 0] 5 [1 2] [0 2 0 0->0] [0 0 0 0->0]
s 0.429806237 _17_ MAC  --- 12 DSR 99 [0 ffffffff 11 800] ------- [10:255 4:255 32 0] 4 [1 2] [0 2 0 0->0] [0 0 0 0->0]
s 0.430557017 _9_ MAC  --- 12 DSR 127 [0 ffffffff 9 800] ------- [10:255 4:255 32 0] 5 [1 2] [0 2 0 0->0] [0 0 0 0->0]
s 0.433611922 _19_ MAC  --- 12 DSR 127 [0 ffffffff 13 800] ------- [10:255 4:255 32 0] 5 [1 2] [0 2 0 0->0] [0 0 0 0->0]
s 0.435655423 _3_ MAC  --- 0 ARP 35 [0 4 3 806] ------- [REPLY 3/3 4/4]
s 0.437159489 _4_ MAC  --- 0 ACK 5 [0 3 4 0] 
s 0.437831489 _4_ MAC  --- 0 ARP 35 [0 ffffffff 4 806] ------- [REQUEST 4/4 0/8]
s 0.439783489 _4_ MAC  --- 13 DSR 75 [0 3 4 800] ------- [4:255 10:255 254 3] 5 [0 2] [1 2 5 10->4] [0 0 0 0->0]
s 0.442567556 _3_ MAC  --- 13 ACK 5 [0 4 3 0] 
s 0.443756584 _8_ MAC  --- 0 ARP 35 [0 4 8 806] ------- [REPLY 8/8 4/4]
s 0.445260678 _4_ MAC  --- 0 ACK 5 [0 8 4 0] 
s 0.446158745 _14_ MAC  --- 12 DSR 127 [0 ffffffff e 800] ------- [10:255 4:255 32 0] 5 [1 2] [0 2 0 0->0] [0 0 0 0->0]
s 0.447532678 _4_ MAC  --- 0 ARP 35 [0 ffffffff 4 806] ------- [REQUEST 4/4 0/9]
s 0.449477556 _3_ MAC  --- 0 ARP 35 [0 ffffffff 3 806] ------- [REQUEST 3/3 0/2]
s 0.452172678 _4_ MAC  --- 15 DSR 83 [0 8 4 800] ------- [4:255 10:255 254 8] 6 [0 2] [1 2 6 10->4] [0 0 0 0->0]
s 0.453354623 _2_ MAC  --- 0 ARP 35 [0 3 2 806] ------- [REPLY 2/2 3/3]
s 0.455850623 _2_ MAC  --- 0 ARP 35 [0 3 2 806] ------- [REPLY 2/2 3/3]
s 0.457164678 _4_ MAC  --- 15 DSR 83 [0 8 4 800] ------- [4:255 10:255 254 8] 6 [0 2] [1 2 6 10->4] [0 0 0 0->0]
s 0.457354689 _3_ MAC  --- 0 ACK 5 [0 2 3 0] 
s 0.460591689 _3_ MAC  --- 13 DSR 75 [0 2 3 800] ------- [4:255 10:255 253 2] 5 [0 2] [1 2 5 10->4] [0 0 0 0->0]
s 0.463375756 _2_ MAC  --- 13 ACK 5 [0 3 2 0] 
s 0.465697756 _2_ MAC  --- 13 DSR 75 [0 6 2 800] ------- [4:255 10:255 252 6] 5 [0 2] [1 2 5 10->4] [0 0 0 0->0]
s 0.467724678 _4_ MAC  --- 15 DSR 83 [0 8 4 800] ------- [4:255 10:255 254 8] 6 [0 2] [1 2 6 10->4] [0 0 0 0->0]
s 0.468481850 _6_ MAC  --- 13 ACK 5 [0 2 6 0] 
s 0.470483850 _6_ MAC  --- 13 DSR 75 [0 a 6 800] ------- [4:255 10:255 251 10] 5 [0 2] [1 2 5 10->4] [0 0 0 0->0]
s 0.471756678 _4_ MAC  --- 15 DSR 83 [0 8 4 800] ------- [4:255 10:255 254 8] 6 [0 2] [1 2 6 10->4] [0 0 0 0->0]
s 0.473267945 _10_ MAC  --- 13 ACK 5 [0 6 a 0] 
s 0.474796772 _8_ MAC  --- 15 ACK 5 [0 4 8 0] 
s 0.475909945 _10_ MAC  --- 9 exp 125 [0 6 a 800] ------- [10:0 4:0 32 6] 
s 0.476138772 _8_ MAC  --- 0 ARP 35 [0 ffffffff 8 806] ------- [REQUEST 8/8 0/3]
s 0.480015839 _3_ MAC  --- 0 ARP 35 [0 8 3 806] ------- [REPLY 3/3 8/8]
s 0.480294039 _6_ MAC  --- 9 ACK 5 [0 a 6 0] 
s 0.481519905 _8_ MAC  --- 0 ACK 5 [0 3 8 0] 
s 0.482276039 _6_ MAC  --- 0 ARP 35 [0 ffffffff 6 806] ------- [REQUEST 6/6 0/2]
s 0.484436905 _8_ MAC  --- 15 DSR 83 [0 3 8 800] ------- [4:255 10:255 253 3] 6 [0 2] [1 2 6 10->4] [0 0 0 0->0]
s 0.487476972 _3_ MAC  --- 15 ACK 5 [0 8 3 0] 
s 0.490118972 _3_ MAC  --- 15 DSR 83 [0 2 3 800] ------- [4:255 10:255 252 2] 6 [0 2] [1 2 6 10->4] [0 0 0 0->0]
s 0.493159039 _2_ MAC  --- 15 ACK 5 [0 3 2 0] 
s 0.494151039 _2_ MAC  --- 0 ARP 35 [0 6 2 806] ------- [REPLY 2/2 6/6]
s 0.495655133 _6_ MAC  --- 0 ACK 5 [0 2 6 0] 
s 0.496647227 _2_ MAC  --- 15 DSR 83 [0 6 2 800] ------- [4:255 10:255 251 6] 6 [0 2] [1 2 6 10->4] [0 0 0 0->0]
s 0.499687322 _6_ MAC  --- 15 ACK 5 [0 2 6 0] 
s 0.502279322 _6_ MAC  --- 9 exp 125 [0 2 6 800] ------- [10:0 4:0 31 2] 
s 0.506663416 _2_ MAC  --- 9 ACK 5 [0 6 2 0] 
s 0.506869945 _10_ MAC  --- 17 exp 125 [0 6 a 800] ------- [10:0 4:0 32 6] 
s 0.508025416 _2_ MAC  --- 9 exp 125 [0 3 2 800] ------- [10:0 4:0 30 3] 
s 0.512409483 _3_ MAC  --- 9 ACK 5 [0 2 3 0] 
s 0.512565945 _10_ MAC  --- 17 exp 125 [0 6 a 800] ------- [10:0 4:0 32 6] 
s 0.515051483 _3_ MAC  --- 9 exp 125 [0 4 3 800] ------- [10:0 4:0 29 4] 
s 0.516950039 _6_ MAC  --- 17 ACK 5 [0 a 6 0] 
s 0.517622039 _6_ MAC  --- 9 exp 125 [0 2 6 800] ------- [10:0 4:0 31 2] 
s 0.519435549 _4_ MAC  --- 9 ACK 5 [0 3 4 0] 
s 0.523318039 _6_ MAC  --- 9 exp 125 [0 2 6 800] ------- [10:0 4:0 31 2] 
s 0.527702133 _2_ MAC  --- 9 ACK 5 [0 6 2 0] 
s 0.529654227 _6_ MAC  --- 15 DSR 83 [0 a 6 800] ------- [4:255 10:255 250 10] 6 [0 2] [1 2 6 10->4] [0 0 0 0->0]
s 0.532694322 _10_ MAC  --- 15 ACK 5 [0 6 a 0] 
s 0.533366416 _6_ MAC  --- 17 exp 125 [0 2 6 800] ------- [10:0 4:0 31 2] 
s 0.537750510 _2_ MAC  --- 17 ACK 5 [0 6 2 0] 
s 0.541352510 _2_ MAC  --- 17 exp 125 [0 3 2 800] ------- [10:0 4:0 30 3] 
s 0.544822322 _10_ MAC  --- 20 DSR 39 [0 ffffffff a 800] ------- [10:255 4:255 32 0] 1 [1 3] [0 3 0 0->0] [0 0 0 0->0]
s 0.545736577 _3_ MAC  --- 17 ACK 5 [0 2 3 0] 
s 0.547418577 _3_ MAC  --- 17 exp 125 [0 4 3 800] ------- [10:0 4:0 29 4] 
s 0.547542322 _10_ MAC  --- 19 exp 129 [0 6 a 800] ------- [10:0 4:0 32 6] 
s 0.551802644 _4_ MAC  --- 17 ACK 5 [0 3 4 0] 
s 0.749929459 _19_ MAC  --- 22 exp 121 [0 d 13 800] ------- [19:0 6:0 32 13] 
s 0.754185553 _13_ MAC  --- 22 ACK 5 [0 13 d 0] 
s 0.755547553 _13_ MAC  --- 22 exp 121 [0 7 d 800] ------- [19:0 6:0 31 7] 
s 0.759803647 _7_ MAC  --- 22 ACK 5 [0 d 7 0] 
s 0.761805647 _7_ MAC  --- 22 exp 121 [0 6 7 800] ------- [19:0 6:0 30 6] 
s 0.766061714 _6_ MAC  --- 22 ACK 5 [0 7 6 0] 
s 0.834324981 _19_ MAC  --- 24 exp 121 [0 d 13 800] ------- [19:0 6:0 32 13] 
s 0.838581075 _13_ MAC  --- 24 ACK 5 [0 13 d 0] 
s 0.841223075 _13_ MAC  --- 24 exp 121 [0 7 d 800] ------- [19:0 6:0 31 7] 
s 0.845479170 _7_ MAC  --- 24 ACK 5 [0 d 7 0] 
s 0.848121170 _7_ MAC  --- 24 exp 121 [0 6 7 800] ------- [19:0 6:0 30 6] 
s 0.852377236 _6_ MAC  --- 24 ACK 5 [0 7 6 0] 
s 0.860087774 _3_ MAC  --- 25 exp 113 [0 2 3 800] ------- [3:0 2:0 32 2] 
s 0.864087840 _2_ MAC  --- 25 ACK 5 [0 3 2 0] 
s 0.971016930 _3_ MAC  --- 26 exp 113 [0 2 3 800] ------- [3:0 2:0 32 2] 
s 0.975016997 _2_ MAC  --- 26 ACK 5 [0 3 2 0] 
s 1.331487672 _19_ MAC  --- 28 exp 97 [0 d 13 800] ------- [19:0 6:0 32 13] 
s 1.334975766 _13_ MAC  --- 28 ACK 5 [0 13 d 0] 
s 1.338577766 _13_ MAC  --- 28 exp 97 [0 7 d 800] ------- [19:0 6:0 31 7] 
s 1.342065861 _7_ MAC  --- 28 ACK 5 [0 d 7 0] 
s 1.343747861 _7_ MAC  --- 28 exp 97 [0 6 7 800] ------- [19:0 6:0 30 6] 
s 1.347235927 _6_ MAC  --- 28 ACK 5 [0 7 6 0] 
s 1.469683705 _19_ MAC  --- 30 exp 97 [0 d 13 800] ------- [19:0 6:0 32 13] 
s 1.473171800 _13_ MAC  --- 30 ACK 5 [0 13 d 0] 
s 1.475813800 _13_ MAC  --- 30 exp 97 [0 7 d 800] ------- [19:0 6:0 31 7] 
s 1.479301894 _7_ MAC  --- 30 ACK 5 [0 d 7 0] 
s 1.481943894 _7_ MAC  --- 30 exp 97 [0 6 7 800] ------- [19:0 6:0 30 6] 
s 1.485431961 _6_ MAC  --- 30 ACK 5 [0 7 6 0] 
s 1.650784236 _3_ MAC  --- 31 exp 113 [0 2 3 800] ------- [3:0 2:0 32 2] 
s 1.654784303 _2_ MAC  --- 31 ACK 5 [0 3 2 0] 
s 1.740220425 _3_ MAC  --- 32 exp 97 [0 2 3 800] ------- [3:0 2:0 32 2] 
s 1.743708492 _2_ MAC  --- 32 ACK 5 [0 3 2 0] 
s 1.752878363 _3_ MAC  --- 33 exp 97 [0 2 3 800] ------- [3:0 2:0 32 2] 
s 1.756366430 _2_ MAC  --- 33 ACK 5 [0 3 2 0] 
s 1.823363450 _3_ MAC  --- 34 exp 97 [0 2 3 800] ------- [3:0 2:0 32 2] 
s 1.826851517 _2_ MAC  --- 34 ACK 5 [0 3 2 0] 
s 1.831000578 _19_ MAC  --- 35 exp 97 [0 d 13 800] ------- [19:0 6:0 32 13] 
s 1.834488672 _13_ MAC  --- 35 ACK 5 [0 13 d 0] 
s 1.837130672 _13_ MAC  --- 35 exp 97 [0 7 d 800] ------- [19:0 6:0 31 7] 
s 1.840618766 _7_ MAC  --- 35 ACK 5 [0 d 7 0] 
s 1.844220766 _7_ MAC  --- 35 exp 97 [0 6 7 800] ------- [19:0 6:0 30 6] 
s 1.847708833 _6_ MAC  --- 35 ACK 5 [0 7 6 0] 
s 1.986621745 _3_ MAC  --- 36 exp 97 [0 2 3 800] ------- [3:0 2:0 32 2] 
s 1.990109811 _2_ MAC  --- 36 ACK 5 [0 3 2 0] 
s 2.195843825 _3_ MAC  --- 37 exp 97 [0 2 3 800] ------- [3:0 2:0 32 2] 
s 2.199331892 _2_ MAC  --- 37 ACK 5 [0 3 2 0] 
s 2.421551114 _3_ MAC  --- 41 exp 97 [0 2 3 800] ------- [3:0 2:0 32 2] 
s 2.425039181 _2_ MAC  --- 41 ACK 5 [0 3 2 0] 
s 2.696856411 _3_ MAC  --- 43 exp 97 [0 2 3 800] ------- [3:0 2:0 32 2] 
s 2.700344478 _2_ MAC  --- 43 ACK 5 [0 3 2 0] 
s 2.806415369 _19_ MAC  --- 44 exp 97 [0 d 13 800] ------- [19:0 6:0 32 13] 
s 2.809903464 _13_ MAC  --- 44 ACK 5 [0 13 d 0] 
s 2.812225464 _13_ MAC  --- 44 exp 97 [0 7 d 800] ------- [19:0 6:0 31 7] 
s 2.815713558 _7_ MAC  --- 44 ACK 5 [0 d 7 0] 
s 2.819315558 _7_ MAC  --- 44 exp 97 [0 6 7 800] ------- [19:0 6:0 30 6] 
s 2.822803625 _6_ MAC  --- 44 ACK 5 [0 7 6 0] 
s 2.899932452 _3_ MAC  --- 45 exp 97 [0 2 3 800] ------- [3:0 2:0 32 2] 
s 2.903420519 _2_ MAC  --- 45 ACK 5 [0 3 2 0] 
s 2.963534972 _3_ MAC  --- 46 exp 97 [0 2 3 800] ------- [3:0 2:0 32 2] 
s 2.967023039 _2_ MAC  --- 46 ACK 5 [0 3 2 0] 
s 3.104818649 _19_ MAC  --- 47 exp 97 [0 d 13 800] ------- [19:0 6:0 32 13] 
s 3.108306744 _13_ MAC  --- 47 ACK 5 [0 13 d 0] 
s 3.109668744 _13_ MAC  --- 47 exp 97 [0 7 d 800] ------- [19:0 6:0 31 7] 
s 3.113156838 _7_ MAC  --- 47 ACK 5 [0 d 7 0] 
s 3.115798838 _7_ MAC  --- 47 exp 97 [0 6 7 800] ------- [19:0 6:0 30 6] 
s 3.119286905 _6_ MAC  --- 47 ACK 5 [0 7 6 0] 
s 3.235311473 _19_ MAC  --- 48 exp 97 [0 d 13 800] ------- [19:0 6:0 32 13] 
s 3.238799567 _13_ MAC  --- 48 ACK 5 [0 13 d 0] 
s 3.242401567 _13_ MAC  --- 48 exp 97 [0 7 d 800] ------- [19:0 6:0 31 7] 
s 3.245889662 _7_ MAC  --- 48 ACK 5 [0 d 7 0] 
s 3.248851662 _7_ MAC  --- 48 exp 97 [0 6 7 800] ------- [19:0 6:0 30 6] 
s 3.252339728 _6_ MAC  --- 48 ACK 5 [0 7 6 0] 
s 3.312893132 _19_ MAC  --- 49 exp 97 [0 d 13 800] ------- [19:0 6:0 32 13] 
s 3.316381226 _13_ MAC  --- 49 ACK 5 [0 13 d 0] 
s 3.319983226 _13_ MAC  --- 49 exp 97 [0 7 d 800] ------- [19:0 6:0 31 7] 
s 3.323471321 _7_ MAC  --- 49 ACK 5 [0 d 7 0] 
s 3.326433321 _7_ MAC  --- 49 exp 97 [0 6 7 800] ------- [19:0 6:0 30 6] 
s 3.329921387 _6_ MAC  --- 49 ACK 5 [0 7 6 0] 
s 3.346388543 _19_ MAC  --- 50 exp 97 [0 d 13 800] ------- [19:0 6:0 32 13] 
s 3.349876637 _13_ MAC  --- 50 ACK 5 [0 13 d 0] 
s 3.352838637 _13_ MAC  --- 50 exp 97 [0 7 d 800] ------- [19:0 6:0 31 7] 
s 3.356326732 _7_ MAC  --- 50 ACK 5 [0 d 7 0] 
s 3.358968732 _7_ MAC  --- 50 exp 97 [0 6 7 800] ------- [19:0 6:0 30 6] 
s 3.362456798 _6_ MAC  --- 50 ACK 5 [0 7 6 0] 
s 3.433866133 _3_ MAC  --- 52 exp 97 [0 2 3 800] ------- [3:0 2:0 32 2] 
s 3.437354200 _2_ MAC  --- 52 ACK 5 [0 3 2 0] 
s 3.444752254 _19_ MAC  --- 53 exp 97 [0 d 13 800] ------- [19:0 6:0 32 13] 
s 3.448240349 _13_ MAC  --- 53 ACK 5 [0 13 d 0] 
s 3.449602349 _13_ MAC  --- 53 exp 97 [0 7 d 800] ------- [19:0 6:0 31 7] 
s 3.453090443 _7_ MAC  --- 53 ACK 5 [0 d 7 0] 
s 3.454452443 _7_ MAC  --- 53 exp 97 [0 6 7 800] ------- [19:0 6:0 30 6] 
s 3.457940510 _6_ MAC  --- 53 ACK 5 [0 7 6 0] 
s 3.595140240 _3_ MAC  --- 55 exp 97 [0 2 3 800] ------- [3:0 2:0 32 2] 
s 3.598628307 _2_ MAC  --- 55 ACK 5 [0 3 2 0] 
s 3.666195021 _19_ MAC  --- 56 exp 97 [0 d 13 800] ------- [19:0 6:0 32 13] 
s 3.669683116 _13_ MAC  --- 56 ACK 5 [0 13 d 0] 
s 3.670675210 _19_ MAC  --- 57 exp 97 [0 d 13 800] ------- [19:0 6:0 32 13] 
s 3.674163304 _13_ MAC  --- 57 ACK 5 [0 13 d 0] 
s 3.676755304 _13_ MAC  --- 56 exp 97 [0 7 d 800] ------- [19:0 6:0 31 7] 
s 3.680243399 _7_ MAC  --- 56 ACK 5 [0 d 7 0] 
s 3.682835493 _13_ MAC  --- 57 exp 97 [0 7 d 800] ------- [19:0 6:0 31 7] 
s 3.686323587 _7_ MAC  --- 57 ACK 5 [0 d 7 0] 
s 3.687635587 _7_ MAC  --- 56 exp 97 [0 6 7 800] ------- [19:0 6:0 30 6] 
s 3.691123654 _6_ MAC  --- 56 ACK 5 [0 7 6 0] 
s 3.694035720 _7_ MAC  --- 57 exp 97 [0 6 7 800] ------- [19:0 6:0 30 6] 
s 3.697523787 _6_ MAC  --- 57 ACK 5 [0 7 6 0] 
s 3.732774137 _3_ MAC  --- 59 exp 97 [0 2 3 800] ------- [3:0 2:0 32 2] 
s 3.736262204 _2_ MAC  --- 59 ACK 5 [0 3 2 0] 
s 3.839055329 _19_ MAC  --- 61 exp 97 [0 d 13 800] ------- [19:0 6:0 32 13] 
s 3.842543424 _13_ MAC  --- 61 ACK 5 [0 13 d 0] 
s 3.845825424 _13_ MAC  --- 61 exp 97 [0 7 d 800] ------- [19:0 6:0 31 7] 
s 3.849313518 _7_ MAC  --- 61 ACK 5 [0 d 7 0] 
s 3.852275518 _7_ MAC  --- 61 exp 97 [0 6 7 800] ------- [19:0 6:0 30 6] 
s 3.855763585 _6_ MAC  --- 61 ACK 5 [0 7 6 0] 
s 4.015934352 _19_ MAC  --- 63 exp 97 [0 d 13 800] ------- [19:0 6:0 32 13] 
s 4.019422446 _13_ MAC  --- 63 ACK 5 [0 13 d 0] 
s 4.022704446 _13_ MAC  --- 63 exp 97 [0 7 d 800] ------- [19:0 6:0 31 7] 
s 4.026192540 _7_ MAC  --- 63 ACK 5 [0 d 7 0] 
s 4.028514540 _7_ MAC  --- 63 exp 97 [0 6 7 800] ------- [19:0 6:0 30 6] 
s 4.032002607 _6_ MAC  --- 63 ACK 5 [0 7 6 0] 
s 4.048758134 _19_ MAC  --- 64 exp 97 [0 d 13 800] ------- [19:0 6:0 32 13] 
s 4.052246229 _13_ MAC  --- 64 ACK 5 [0 13 d 0] 
s 4.055208229 _13_ MAC  --- 64 exp 97 [0 7 d 800] ------- [19:0 6:0 31 7] 
s 4.058696323 _7_ MAC  --- 64 ACK 5 [0 d 7 0] 
s 4.061978323 _7_ MAC  --- 64 exp 97 [0 6 7 800] ------- [19:0 6:0 30 6] 
s 4.065466390 _6_ MAC  --- 64 ACK 5 [0 7 6 0] 
s 4.302236098 _3_ MAC  --- 65 exp 97 [0 2 3 800] ------- [3:0 2:0 32 2] 
s 4.305724165 _2_ MAC  --- 65 ACK 5 [0 3 2 0] 
s 4.329890584 _19_ MAC  --- 66 exp 97 [0 d 13 800] ------- [19:0 6:0 32 13] 
s 4.333378678 _13_ MAC  --- 66 ACK 5 [0 13 d 0] 
s 4.335700678 _13_ MAC  --- 66 exp 97 [0 7 d 800] ------- [19:0 6:0 31 7] 
s 4.339188772 _7_ MAC  --- 66 ACK 5 [0 d 7 0] 
s 4.342470772 _7_ MAC  --- 66 exp 97 [0 6 7 800] ------- [19:0 6:0 30 6] 
s 4.345958839 _6_ MAC  --- 66 ACK 5 [0 7 6 0] 
s 4.477686962 _19_ MAC  --- 68 exp 97 [0 d 13 800] ------- [19:0 6:0 32 13] 
s 4.481175056 _13_ MAC  --- 68 ACK 5 [0 13 d 0] 
s 4.483817056 _13_ MAC  --- 68 exp 97 [0 7 d 800] ------- [19:0 6:0 31 7] 
s 4.487305150 _7_ MAC  --- 68 ACK 5 [0 d 7 0] 
s 4.488667150 _7_ MAC  --- 68 exp 97 [0 6 7 800] ------- [19:0 6:0 30 6] 
s 4.492155217 _6_ MAC  --- 68 ACK 5 [0 7 6 0] 
s 4.663624111 _3_ MAC  --- 75 exp 97 [0 2 3 800] ------- [3:0 2:0 32 2] 
s 4.667112177 _2_ MAC  --- 75 ACK 5 [0 3 2 0] 
s 4.740521728 _19_ MAC  --- 77 exp 97 [0 d 13 800] ------- [19:0 6:0 32 13] 
s 4.744009822 _13_ MAC  --- 77 ACK 5 [0 13 d 0] 
s 4.747291822 _13_ MAC  --- 77 exp 97 [0 7 d 800] ------- [19:0 6:0 31 7] 
s 4.750779916 _7_ MAC  --- 77 ACK 5 [0 d 7 0] 
s 4.754381916 _7_ MAC  --- 77 exp 97 [0 6 7 800] ------- [19:0 6:0 30 6] 
s 4.757869983 _6_ MAC  --- 77 ACK 5 [0 7 6 0] 
s 5.243003209 _19_ MAC  --- 81 exp 97 [0 d 13 800] ------- [19:0 6:0 32 13] 
s 5.246491303 _13_ MAC  --- 81 ACK 5 [0 13 d 0] 
s 5.249453303 _13_ MAC  --- 81 exp 97 [0 7 d 800] ------- [19:0 6:0 31 7] 
s 5.252941398 _7_ MAC  --- 81 ACK 5 [0 d 7 0] 
s 5.255903398 _7_ MAC  --- 81 exp 97 [0 6 7 800] ------- [19:0 6:0 30 6] 
s 5.259391464 _6_ MAC  --- 81 ACK 5 [0 7 6 0] 
s 5.311281211 _3_ MAC  --- 83 exp 97 [0 2 3 800] ------- [3:0 2:0 32 2] 
s 5.314769278 _2_ MAC  --- 83 ACK 5 [0 3 2 0] 
s 5.481318578 _19_ MAC  --- 84 exp 97 [0 d 13 800] ------- [19:0 6:0 32 13] 
s 5.484806672 _13_ MAC  --- 84 ACK 5 [0 13 d 0] 
s 5.487128672 _13_ MAC  --- 84 exp 97 [0 7 d 800] ------- [19:0 6:0 31 7] 
s 5.490616767 _7_ MAC  --- 84 ACK 5 [0 d 7 0] 
s 5.493898767 _7_ MAC  --- 84 exp 97 [0 6 7 800] ------- [19:0 6:0 30 6] 
s 5.497386833 _6_ MAC  --- 84 ACK 5 [0 7 6 0] 
s 5.617712486 _3_ MAC  --- 85 exp 97 [0 2 3 800] ------- [3:0 2:0 32 2] 
s 5.621200553 _2_ MAC  --- 85 ACK 5 [0 3 2 0] 
s 5.629261511 _3_ MAC  --- 86 exp 97 [0 2 3 800] ------- [3:0 2:0 32 2] 
s 5.632749578 _2_ MAC  --- 86 ACK 5 [0 3 2 0] 
s 6.031295441 _3_ MAC  --- 87 exp 97 [0 2 3 800] ------- [3:0 2:0 32 2] 
s 6.034783508 _2_ MAC  --- 87 ACK 5 [0 3 2 0] 
s 6.102670056 _3_ MAC  --- 88 exp 97 [0 2 3 800] ------- [3:0 2:0 32 2] 
s 6.106158123 _2_ MAC  --- 88 ACK 5 [0 3 2 0] 
s 6.157792074 _3_ MAC  --- 89 exp 97 [0 2 3 800] ------- [3:0 2:0 32 2] 
s 6.161280140 _2_ MAC  --- 89 ACK 5 [0 3 2 0] 
s 6.284568048 _3_ MAC  --- 93 exp 97 [0 2 3 800] ------- [3:0 2:0 32 2] 
s 6.288056115 _2_ MAC  --- 93 ACK 5 [0 3 2 0] 
s 6.351322969 _3_ MAC  --- 94 exp 97 [0 2 3 800] ------- [3:0 2:0 32 2] 
s 6.354811036 _2_ MAC  --- 94 ACK 5 [0 3 2 0] 
s 6.411467252 _19_ MAC  --- 95 exp 121 [0 d 13 800] ------- [19:0 6:0 32 13] 
s 6.415723347 _13_ MAC  --- 95 ACK 5 [0 13 d 0] 
s 6.417725347 _13_ MAC  --- 95 exp 121 [0 7 d 800] ------- [19:0 6:0 31 7] 
s 6.421981441 _7_ MAC  --- 95 ACK 5 [0 d 7 0] 
s 6.423983441 _7_ MAC  --- 95 exp 121 [0 6 7 800] ------- [19:0 6:0 30 6] 
s 6.428239508 _6_ MAC  --- 95 ACK 5 [0 7 6 0] 
s 6.565471614 _3_ MAC  --- 96 exp 97 [0 2 3 800] ------- [3:0 2:0 32 2] 
s 6.568959681 _2_ MAC  --- 96 ACK 5 [0 3 2 0] 
s 6.684832866 _3_ MAC  --- 97 exp 113 [0 2 3 800] ------- [3:0 2:0 32 2] 
s 6.688832932 _2_ MAC  --- 97 ACK 5 [0 3 2 0] 
s 6.804152507 _19_ MAC  --- 98 exp 97 [0 d 13 800] ------- [19:0 6:0 32 13] 
s 6.807640601 _13_ MAC  --- 98 ACK 5 [0 13 d 0] 
s 6.809962601 _13_ MAC  --- 98 exp 97 [0 7 d 800] ------- [19:0 6:0 31 7] 
s 6.813450695 _7_ MAC  --- 98 ACK 5 [0 d 7 0] 
s 6.815772695 _7_ MAC  --- 98 exp 97 [0 6 7 800] ------- [19:0 6:0 30 6] 
s 6.819260762 _6_ MAC  --- 98 ACK 5 [0 7 6 0] 
s 6.880740440 _3_ MAC  --- 100 exp 97 [0 2 3 800] ------- [3:0 2:0 32 2] 
s 6.884228506 _2_ MAC  --- 100 ACK 5 [0 3 2 0] 
s 6.929303975 _3_ MAC  --- 101 exp 97 [0 2 3 800] ------- [3:0 2:0 32 2] 
s 6.932792042 _2_ MAC  --- 101 ACK 5 [0 3 2 0] 
s 6.967958479 _19_ MAC  --- 103 exp 97 [0 d 13 800] ------- [19:0 6:0 32 13] 
s 6.971446573 _13_ MAC  --- 103 ACK 5 [0 13 d 0] 
s 6.973768573 _13_ MAC  --- 103 exp 97 [0 7 d 800] ------- [19:0 6:0 31 7] 
s 6.977256668 _7_ MAC  --- 103 ACK 5 [0 d 7 0] 
s 6.980538668 _7_ MAC  --- 103 exp 97 [0 6 7 800] ------- [19:0 6:0 30 6] 
s 6.984026734 _6_ MAC  --- 103 ACK 5 [0 7 6 0] 
s 7.051039664 _3_ MAC  --- 104 exp 97 [0 2 3 800] ------- [3:0 2:0 32 2] 
s 7.054527730 _2_ MAC  --- 104 ACK 5 [0 3 2 0] 
s 7.194105760 _19_ MAC  --- 106 exp 97 [0 d 13 800] ------- [19:0 6:0 32 13] 
s 7.197593855 _13_ MAC  --- 106 ACK 5 [0 13 d 0] 
s 7.200875855 _13_ MAC  --- 106 exp 97 [0 7 d 800] ------- [19:0 6:0 31 7] 
s 7.204363949 _7_ MAC  --- 106 ACK 5 [0 d 7 0] 
s 7.207645949 _7_ MAC  --- 106 exp 97 [0 6 7 800] ------- [19:0 6:0 30 6] 
s 7.211134016 _6_ MAC  --- 106 ACK 5 [0 7 6 0] 
s 7.443001615 _3_ MAC  --- 107 exp 97 [0 2 3 800] ------- [3:0 2:0 32 2] 
s 7.446489682 _2_ MAC  --- 107 ACK 5 [0 3 2 0] 
s 7.517484636 _3_ MAC  --- 108 exp 97 [0 2 3 800] ------- [3:0 2:0 32 2] 
s 7.520972703 _2_ MAC  --- 108 ACK 5 [0 3 2 0] 
s 7.580304942 _3_ MAC  --- 109 exp 97 [0 2 3 800] ------- [3:0 2:0 32 2] 
s 7.583793009 _2_ MAC  --- 109 ACK 5 [0 3 2 0] 
s 7.746283396 _3_ MAC  --- 111 exp 97 [0 2 3 800] ------- [3:0 2:0 32 2] 
s 7.749771463 _2_ MAC  --- 111 ACK 5 [0 3 2 0] 
s 7.887409420 _3_ MAC  --- 113 exp 97 [0 2 3 800] ------- [3:0 2:0 32 2] 
s 7.890897486 _2_ MAC  --- 113 ACK 5 [0 3 2 0] 
s 8.287444005 _3_ MAC  --- 118 exp 97 [0 2 3 800] ------- [3:0 2:0 32 2] 
s 8.290932071 _2_ MAC  --- 118 ACK 5 [0 3 2 0] 
s 8.297286295 _19_ MAC  --- 119 exp 97 [0 d 13 800] ------- [19:0 6:0 32 13] 
s 8.300774389 _13_ MAC  --- 119 ACK 5 [0 13 d 0] 
s 8.302776389 _13_ MAC  --- 119 exp 97 [0 7 d 800] ------- [19:0 6:0 31 7] 
s 8.306264484 _7_ MAC  --- 119 ACK 5 [0 d 7 0] 
s 8.308266484 _7_ MAC  --- 119 exp 97 [0 6 7 800] ------- [19:0 6:0 30 6] 
s 8.311754550 _6_ MAC  --- 119 ACK 5 [0 7 6 0] 
s 8.356529838 _19_ MAC  --- 120 exp 97 [0 d 13 800] ------- [19:0 6:0 32 13] 
s 8.360017932 _13_ MAC  --- 120 ACK 5 [0 13 d 0] 
s 8.362019932 _13_ MAC  --- 120 exp 97 [0 7 d 800] ------- [19:0 6:0 31 7] 
s 8.365508026 _7_ MAC  --- 120 ACK 5 [0 d 7 0] 
s 8.365723429 _3_ MAC  --- 121 exp 97 [0 2 3 800] ------- [3:0 2:0 32 2] 
s 8.369558026 _7_ MAC  --- 120 exp 97 [0 6 7 800] ------- [19:0 6:0 30 6] 
s 8.373046093 _6_ MAC  --- 120 ACK 5 [0 7 6 0] 
s 8.374491429 _3_ MAC  --- 121 exp 97 [0 2 3 800] ------- [3:0 2:0 32 2] 
s 8.377979496 _2_ MAC  --- 121 ACK 5 [0 3 2 0] 
s 8.675582901 _3_ MAC  --- 122 exp 97 [0 2 3 800] ------- [3:0 2:0 32 2] 
s 8.679070968 _2_ MAC  --- 122 ACK 5 [0 3 2 0] 
s 8.793185214 _19_ MAC  --- 123 exp 97 [0 d 13 800] ------- [19:0 6:0 32 13] 
s 8.796673309 _13_ MAC  --- 123 ACK 5 [0 13 d 0] 
s 8.800275309 _13_ MAC  --- 123 exp 97 [0 7 d 800] ------- [19:0 6:0 31 7] 
s 8.803763403 _7_ MAC  --- 123 ACK 5 [0 d 7 0] 
s 8.805765403 _7_ MAC  --- 123 exp 97 [0 6 7 800] ------- [19:0 6:0 30 6] 
s 8.809253469 _6_ MAC  --- 123 ACK 5 [0 7 6 0] 
s 8.830362793 _19_ MAC  --- 124 exp 97 [0 d 13 800] ------- [19:0 6:0 32 13] 
s 8.833850887 _13_ MAC  --- 124 ACK 5 [0 13 d 0] 
s 8.837452887 _13_ MAC  --- 124 exp 97 [0 7 d 800] ------- [19:0 6:0 31 7] 
s 8.840940982 _7_ MAC  --- 124 ACK 5 [0 d 7 0] 
s 8.844222982 _7_ MAC  --- 124 exp 97 [0 6 7 800] ------- [19:0 6:0 30 6] 
s 8.847711048 _6_ MAC  --- 124 ACK 5 [0 7 6 0] 
s 8.963530437 _3_ MAC  --- 126 exp 97 [0 2 3 800] ------- [3:0 2:0 32 2] 
s 8.967018503 _2_ MAC  --- 126 ACK 5 [0 3 2 0] 
s 9.050683695 _3_ MAC  --- 129 exp 97 [0 2 3 800] ------- [3:0 2:0 32 2] 
s 9.054171762 _2_ MAC  --- 129 ACK 5 [0 3 2 0] 
s 9.093532163 _3_ MAC  --- 130 exp 97 [0 2 3 800] ------- [3:0 2:0 32 2] 
s 9.097020230 _2_ MAC  --- 130 ACK 5 [0 3 2 0] 
s 9.111888631 _3_ MAC  --- 131 exp 97 [0 2 3 800] ------- [3:0 2:0 32 2] 
s 9.115376698 _2_ MAC  --- 131 ACK 5 [0 3 2 0] 
s 9.168564701 _3_ MAC  --- 132 exp 97 [0 2 3 800] ------- [3:0 2:0 32 2] 
s 9.172052767 _2_ MAC  --- 132 ACK 5 [0 3 2 0] 