r 0.077731787 _18_ MAC  --- 1 DSR 32 [0 ffffffff 13 800] ------- [19:255 6:255 32 0] 1 [1 1] [0 1 0 0->0] [0 0 0 0->0]
r 0.077731787 _14_ MAC  --- 1 DSR 32 [0 ffffffff 13 800] ------- [19:255 6:255 32 0] 1 [1 1] [0 1 0 0->0] [0 0 0 0->0]
r 0.077731787 _24_ MAC  --- 1 DSR 32 [0 ffffffff 13 800] ------- [19:255 6:255 32 0] 1 [1 1] [0 1 0 0->0] [0 0 0 0->0]
r 0.077731814 _13_ MAC  --- 1 DSR 32 [0 ffffffff 13 800] ------- [19:255 6:255 32 0] 1 [1 1] [0 1 0 0->0] [0 0 0 0->0]
r 0.077731814 _23_ MAC  --- 1 DSR 32 [0 ffffffff 13 800] ------- [19:255 6:255 32 0] 1 [1 1] [0 1 0 0->0] [0 0 0 0->0]
r 0.131356134 _18_ MAC  --- 3 DSR 32 [0 ffffffff 13 800] ------- [19:255 6:255 32 0] 1 [1 2] [0 2 0 0->0] [0 0 0 0->0]
r 0.131356134 _14_ MAC  --- 3 DSR 32 [0 ffffffff 13 800] ------- [19:255 6:255 32 0] 1 [1 2] [0 2 0 0->0] [0 0 0 0->0]
r 0.131356134 _24_ MAC  --- 3 DSR 32 [0 ffffffff 13 800] ------- [19:255 6:255 32 0] 1 [1 2] [0 2 0 0->0] [0 0 0 0->0]
r 0.131356162 _13_ MAC  --- 3 DSR 32 [0 ffffffff 13 800] ------- [19:255 6:255 32 0] 1 [1 2] [0 2 0 0->0] [0 0 0 0->0]
r 0.131356162 _23_ MAC  --- 3 DSR 32 [0 ffffffff 13 800] ------- [19:255 6:255 32 0] 1 [1 2] [0 2 0 0->0] [0 0 0 0->0]
r 0.136796140 _23_ MAC  --- 3 DSR 48 [0 ffffffff 18 800] ------- [19:255 6:255 32 0] 2 [1 2] [0 2 0 0->0] [0 0 0 0->0]
r 0.136796140 _19_ MAC  --- 3 DSR 48 [0 ffffffff 18 800] ------- [19:255 6:255 32 0] 2 [1 2] [0 2 0 0->0] [0 0 0 0->0]
r 0.136796168 _18_ MAC  --- 3 DSR 48 [0 ffffffff 18 800] ------- [19:255 6:255 32 0] 2 [1 2] [0 2 0 0->0] [0 0 0 0->0]
r 0.140360546 _22_ MAC  --- 3 DSR 48 [0 ffffffff 17 800] ------- [19:255 6:255 32 0] 2 [1 2] [0 2 0 0->0] [0 0 0 0->0]
r 0.140360546 _18_ MAC  --- 3 DSR 48 [0 ffffffff 17 800] ------- [19:255 6:255 32 0] 2 [1 2] [0 2 0 0->0] [0 0 0 0->0]
r 0.140360546 _24_ MAC  --- 3 DSR 48 [0 ffffffff 17 800] ------- [19:255 6:255 32 0] 2 [1 2] [0 2 0 0->0] [0 0 0 0->0]
r 0.140360573 _19_ MAC  --- 3 DSR 48 [0 ffffffff 17 800] ------- [19:255 6:255 32 0] 2 [1 2] [0 2 0 0->0] [0 0 0 0->0]
r 0.140360573 _17_ MAC  --- 3 DSR 48 [0 ffffffff 17 800] ------- [19:255 6:255 32 0] 2 [1 2] [0 2 0 0->0] [0 0 0 0->0]
r 0.143768469 _12_ MAC  --- 3 DSR 48 [0 ffffffff d 800] ------- [19:255 6:255 32 0] 2 [1 2] [0 2 0 0->0] [0 0 0 0->0]
r 0.143768469 _8_ MAC  --- 3 DSR 48 [0 ffffffff d 800] ------- [19:255 6:255 32 0] 2 [1 2] [0 2 0 0->0] [0 0 0 0->0]
r 0.143768469 _14_ MAC  --- 3 DSR 48 [0 ffffffff d 800] ------- [19:255 6:255 32 0] 2 [1 2] [0 2 0 0->0] [0 0 0 0->0]
r 0.143768469 _18_ MAC  --- 3 DSR 48 [0 ffffffff d 800] ------- [19:255 6:255 32 0] 2 [1 2] [0 2 0 0->0] [0 0 0 0->0]
r 0.143768497 _9_ MAC  --- 3 DSR 48 [0 ffffffff d 800] ------- [19:255 6:255 32 0] 2 [1 2] [0 2 0 0->0] [0 0 0 0->0]
r 0.143768497 _7_ MAC  --- 3 DSR 48 [0 ffffffff d 800] ------- [19:255 6:255 32 0] 2 [1 2] [0 2 0 0->0] [0 0 0 0->0]
r 0.143768497 _17_ MAC  --- 3 DSR 48 [0 ffffffff d 800] ------- [19:255 6:255 32 0] 2 [1 2] [0 2 0 0->0] [0 0 0 0->0]
r 0.143768497 _19_ MAC  --- 3 DSR 48 [0 ffffffff d 800] ------- [19:255 6:255 32 0] 2 [1 2] [0 2 0 0->0] [0 0 0 0->0]
r 0.146063272 _13_ MAC  --- 3 DSR 48 [0 ffffffff e 800] ------- [19:255 6:255 32 0] 2 [1 2] [0 2 0 0->0] [0 0 0 0->0]
r 0.146063272 _9_ MAC  --- 3 DSR 48 [0 ffffffff e 800] ------- [19:255 6:255 32 0] 2 [1 2] [0 2 0 0->0] [0 0 0 0->0]
r 0.146063272 _19_ MAC  --- 3 DSR 48 [0 ffffffff e 800] ------- [19:255 6:255 32 0] 2 [1 2] [0 2 0 0->0] [0 0 0 0->0]
r 0.146063300 _8_ MAC  --- 3 DSR 48 [0 ffffffff e 800] ------- [19:255 6:255 32 0] 2 [1 2] [0 2 0 0->0] [0 0 0 0->0]
r 0.146911221 _21_ MAC  --- 3 DSR 68 [0 ffffffff 16 800] ------- [19:255 6:255 32 0] 3 [1 2] [0 2 0 0->0] [0 0 0 0->0]
r 0.146911221 _17_ MAC  --- 3 DSR 68 [0 ffffffff 16 800] ------- [19:255 6:255 32 0] 3 [1 2] [0 2 0 0->0] [0 0 0 0->0]
r 0.146911221 _23_ MAC  --- 3 DSR 68 [0 ffffffff 16 800] ------- [19:255 6:255 32 0] 3 [1 2] [0 2 0 0->0] [0 0 0 0->0]
r 0.146911249 _16_ MAC  --- 3 DSR 68 [0 ffffffff 16 800] ------- [19:255 6:255 32 0] 3 [1 2] [0 2 0 0->0] [0 0 0 0->0]
r 0.149066294 _6_ MAC  --- 3 DSR 68 [0 ffffffff 7 800] ------- [19:255 6:255 32 0] 3 [1 2] [0 2 0 0->0] [0 0 0 0->0]
r 0.149066294 _2_ MAC  --- 3 DSR 68 [0 ffffffff 7 800] ------- [19:255 6:255 32 0] 3 [1 2] [0 2 0 0->0] [0 0 0 0->0]
r 0.149066321 _1_ MAC  --- 3 DSR 68 [0 ffffffff 7 800] ------- [19:255 6:255 32 0] 3 [1 2] [0 2 0 0->0] [0 0 0 0->0]
r 0.150259606 _4_ MAC  --- 3 DSR 68 [0 ffffffff 9 800] ------- [19:255 6:255 32 0] 3 [1 2] [0 2 0 0->0] [0 0 0 0->0]
r 0.150259606 _14_ MAC  --- 3 DSR 68 [0 ffffffff 9 800] ------- [19:255 6:255 32 0] 3 [1 2] [0 2 0 0->0] [0 0 0 0->0]
r 0.151125802 _16_ MAC  --- 3 DSR 68 [0 ffffffff 11 800] ------- [19:255 6:255 32 0] 3 [1 2] [0 2 0 0->0] [0 0 0 0->0]
r 0.151125802 _18_ MAC  --- 3 DSR 68 [0 ffffffff 11 800] ------- [19:255 6:255 32 0] 3 [1 2] [0 2 0 0->0] [0 0 0 0->0]
r 0.151125802 _22_ MAC  --- 3 DSR 68 [0 ffffffff 11 800] ------- [19:255 6:255 32 0] 3 [1 2] [0 2 0 0->0] [0 0 0 0->0]
r 0.151125829 _21_ MAC  --- 3 DSR 68 [0 ffffffff 11 800] ------- [19:255 6:255 32 0] 3 [1 2] [0 2 0 0->0] [0 0 0 0->0]
r 0.151125829 _23_ MAC  --- 3 DSR 68 [0 ffffffff 11 800] ------- [19:255 6:255 32 0] 3 [1 2] [0 2 0 0->0] [0 0 0 0->0]
r 0.154539031 _7_ MAC  --- 3 DSR 68 [0 ffffffff 8 800] ------- [19:255 6:255 32 0] 3 [1 2] [0 2 0 0->0] [0 0 0 0->0]
r 0.154539031 _3_ MAC  --- 3 DSR 68 [0 ffffffff 8 800] ------- [19:255 6:255 32 0] 3 [1 2] [0 2 0 0->0] [0 0 0 0->0]
r 0.154539031 _9_ MAC  --- 3 DSR 68 [0 ffffffff 8 800] ------- [19:255 6:255 32 0] 3 [1 2] [0 2 0 0->0] [0 0 0 0->0]
r 0.154539031 _13_ MAC  --- 3 DSR 68 [0 ffffffff 8 800] ------- [19:255 6:255 32 0] 3 [1 2] [0 2 0 0->0] [0 0 0 0->0]
r 0.154539059 _4_ MAC  --- 3 DSR 68 [0 ffffffff 8 800] ------- [19:255 6:255 32 0] 3 [1 2] [0 2 0 0->0] [0 0 0 0->0]
r 0.154539059 _2_ MAC  --- 3 DSR 68 [0 ffffffff 8 800] ------- [19:255 6:255 32 0] 3 [1 2] [0 2 0 0->0] [0 0 0 0->0]
r 0.154539059 _14_ MAC  --- 3 DSR 68 [0 ffffffff 8 800] ------- [19:255 6:255 32 0] 3 [1 2] [0 2 0 0->0] [0 0 0 0->0]
r 0.157129522 _15_ MAC  --- 3 DSR 92 [0 ffffffff 10 800] ------- [19:255 6:255 32 0] 4 [1 2] [0 2 0 0->0] [0 0 0 0->0]
r 0.157129522 _11_ MAC  --- 3 DSR 92 [0 ffffffff 10 800] ------- [19:255 6:255 32 0] 4 [1 2] [0 2 0 0->0] [0 0 0 0->0]
r 0.157129522 _21_ MAC  --- 3 DSR 92 [0 ffffffff 10 800] ------- [19:255 6:255 32 0] 4 [1 2] [0 2 0 0->0] [0 0 0 0->0]
r 0.157129550 _10_ MAC  --- 3 DSR 92 [0 ffffffff 10 800] ------- [19:255 6:255 32 0] 4 [1 2] [0 2 0 0->0] [0 0 0 0->0]
r 0.157129550 _20_ MAC  --- 3 DSR 92 [0 ffffffff 10 800] ------- [19:255 6:255 32 0] 4 [1 2] [0 2 0 0->0] [0 0 0 0->0]
r 0.157271396 _13_ MAC  --- 3 DSR 48 [0 ffffffff 12 800] ------- [19:255 6:255 32 0] 2 [1 2] [0 2 0 0->0] [0 0 0 0->0]
r 0.157271396 _19_ MAC  --- 3 DSR 48 [0 ffffffff 12 800] ------- [19:255 6:255 32 0] 2 [1 2] [0 2 0 0->0] [0 0 0 0->0]
r 0.157271396 _23_ MAC  --- 3 DSR 48 [0 ffffffff 12 800] ------- [19:255 6:255 32 0] 2 [1 2] [0 2 0 0->0] [0 0 0 0->0]
r 0.157271424 _14_ MAC  --- 3 DSR 48 [0 ffffffff 12 800] ------- [19:255 6:255 32 0] 2 [1 2] [0 2 0 0->0] [0 0 0 0->0]
r 0.157271424 _24_ MAC  --- 3 DSR 48 [0 ffffffff 12 800] ------- [19:255 6:255 32 0] 2 [1 2] [0 2 0 0->0] [0 0 0 0->0]
r 0.159637141 _5_ MAC  --- 0 ARP 28 [0 ffffffff 6 806] ------- [REQUEST 6/6 0/7]
r 0.159637141 _1_ MAC  --- 0 ARP 28 [0 ffffffff 6 806] ------- [REQUEST 6/6 0/7]
r 0.159637141 _7_ MAC  --- 0 ARP 28 [0 ffffffff 6 806] ------- [REQUEST 6/6 0/7]
r 0.159637141 _11_ MAC  --- 0 ARP 28 [0 ffffffff 6 806] ------- [REQUEST 6/6 0/7]
r 0.159637169 _2_ MAC  --- 0 ARP 28 [0 ffffffff 6 806] ------- [REQUEST 6/6 0/7]
r 0.159637169 _0_ MAC  --- 0 ARP 28 [0 ffffffff 6 806] ------- [REQUEST 6/6 0/7]
r 0.159637169 _10_ MAC  --- 0 ARP 28 [0 ffffffff 6 806] ------- [REQUEST 6/6 0/7]
r 0.159637169 _12_ MAC  --- 0 ARP 28 [0 ffffffff 6 806] ------- [REQUEST 6/6 0/7]
r 0.160861742 _20_ MAC  --- 3 DSR 92 [0 ffffffff 15 800] ------- [19:255 6:255 32 0] 4 [1 2] [0 2 0 0->0] [0 0 0 0->0]
r 0.160861742 _16_ MAC  --- 3 DSR 92 [0 ffffffff 15 800] ------- [19:255 6:255 32 0] 4 [1 2] [0 2 0 0->0] [0 0 0 0->0]
r 0.160861742 _22_ MAC  --- 3 DSR 92 [0 ffffffff 15 800] ------- [19:255 6:255 32 0] 4 [1 2] [0 2 0 0->0] [0 0 0 0->0]
r 0.160861770 _17_ MAC  --- 3 DSR 92 [0 ffffffff 15 800] ------- [19:255 6:255 32 0] 4 [1 2] [0 2 0 0->0] [0 0 0 0->0]
r 0.160861770 _15_ MAC  --- 3 DSR 92 [0 ffffffff 15 800] ------- [19:255 6:255 32 0] 4 [1 2] [0 2 0 0->0] [0 0 0 0->0]
r 0.163681565 _4_ MAC  --- 3 DSR 92 [0 ffffffff 3 800] ------- [19:255 6:255 32 0] 4 [1 2] [0 2 0 0->0] [0 0 0 0->0]
r 0.163681593 _9_ MAC  --- 3 DSR 92 [0 ffffffff 3 800] ------- [19:255 6:255 32 0] 4 [1 2] [0 2 0 0->0] [0 0 0 0->0]
r 0.163735293 _1_ MAC  --- 3 DSR 92 [0 ffffffff 2 800] ------- [19:255 6:255 32 0] 4 [1 2] [0 2 0 0->0] [0 0 0 0->0]
r 0.163870821 _13_ MAC  --- 3 DSR 68 [0 ffffffff c 800] ------- [19:255 6:255 32 0] 3 [1 2] [0 2 0 0->0] [0 0 0 0->0]
r 0.163870821 _17_ MAC  --- 3 DSR 68 [0 ffffffff c 800] ------- [19:255 6:255 32 0] 3 [1 2] [0 2 0 0->0] [0 0 0 0->0]
r 0.163870849 _18_ MAC  --- 3 DSR 68 [0 ffffffff c 800] ------- [19:255 6:255 32 0] 3 [1 2] [0 2 0 0->0] [0 0 0 0->0]
r 0.165922932 _10_ MAC  --- 3 DSR 120 [0 ffffffff f 800] ------- [19:255 6:255 32 0] 5 [1 2] [0 2 0 0->0] [0 0 0 0->0]
r 0.165922932 _20_ MAC  --- 3 DSR 120 [0 ffffffff f 800] ------- [19:255 6:255 32 0] 5 [1 2] [0 2 0 0->0] [0 0 0 0->0]
r 0.165922960 _21_ MAC  --- 3 DSR 120 [0 ffffffff f 800] ------- [19:255 6:255 32 0] 5 [1 2] [0 2 0 0->0] [0 0 0 0->0]
r 0.166106275 _7_ MAC  --- 0 ACK 5 [0 7 6 0] 
r 0.166746208 _6_ MAC  --- 0 ARP 28 [0 6 7 806] ------- [REPLY 7/7 6/6]
r 0.169861979 _3_ MAC  --- 3 DSR 92 [0 ffffffff 4 800] ------- [19:255 6:255 32 0] 4 [1 2] [0 2 0 0->0] [0 0 0 0->0]
r 0.169861979 _9_ MAC  --- 3 DSR 92 [0 ffffffff 4 800] ------- [19:255 6:255 32 0] 4 [1 2] [0 2 0 0->0] [0 0 0 0->0]
r 0.169862007 _8_ MAC  --- 3 DSR 92 [0 ffffffff 4 800] ------- [19:255 6:255 32 0] 4 [1 2] [0 2 0 0->0] [0 0 0 0->0]
r 0.170906115 _0_ MAC  --- 3 DSR 92 [0 ffffffff 1 800] ------- [19:255 6:255 32 0] 4 [1 2] [0 2 0 0->0] [0 0 0 0->0]
r 0.170906115 _2_ MAC  --- 3 DSR 92 [0 ffffffff 1 800] ------- [19:255 6:255 32 0] 4 [1 2] [0 2 0 0->0] [0 0 0 0->0]
r 0.171677230 _10_ MAC  --- 3 DSR 120 [0 ffffffff b 800] ------- [19:255 6:255 32 0] 5 [1 2] [0 2 0 0->0] [0 0 0 0->0]
r 0.171677230 _12_ MAC  --- 3 DSR 120 [0 ffffffff b 800] ------- [19:255 6:255 32 0] 5 [1 2] [0 2 0 0->0] [0 0 0 0->0]
r 0.171677258 _17_ MAC  --- 3 DSR 120 [0 ffffffff b 800] ------- [19:255 6:255 32 0] 5 [1 2] [0 2 0 0->0] [0 0 0 0->0]
r 0.173286046 _21_ MAC  --- 3 DSR 120 [0 ffffffff 14 800] ------- [19:255 6:255 32 0] 5 [1 2] [0 2 0 0->0] [0 0 0 0->0]
r 0.177210427 _5_ MAC  --- 3 DSR 120 [0 ffffffff a 800] ------- [19:255 6:255 32 0] 5 [1 2] [0 2 0 0->0] [0 0 0 0->0]
r 0.177210427 _11_ MAC  --- 3 DSR 120 [0 ffffffff a 800] ------- [19:255 6:255 32 0] 5 [1 2] [0 2 0 0->0] [0 0 0 0->0]
r 0.177210454 _6_ MAC  --- 3 DSR 120 [0 ffffffff a 800] ------- [19:255 6:255 32 0] 5 [1 2] [0 2 0 0->0] [0 0 0 0->0]
r 0.181524506 _1_ MAC  --- 3 DSR 120 [0 ffffffff 0 800] ------- [19:255 6:255 32 0] 5 [1 2] [0 2 0 0->0] [0 0 0 0->0]
r 0.181524506 _5_ MAC  --- 3 DSR 120 [0 ffffffff 0 800] ------- [19:255 6:255 32 0] 5 [1 2] [0 2 0 0->0] [0 0 0 0->0]
r 0.181524533 _6_ MAC  --- 3 DSR 120 [0 ffffffff 0 800] ------- [19:255 6:255 32 0] 5 [1 2] [0 2 0 0->0] [0 0 0 0->0]
r 0.185375341 _6_ MAC  --- 4 ACK 5 [0 6 7 0] 
r 0.186015275 _7_ MAC  --- 4 DSR 60 [0 7 6 800] ------- [6:255 19:255 254 7] 4 [0 2] [1 2 4 19->6] [0 0 0 0->0]
r 0.187647408 _5_ MAC  --- 0 ARP 28 [0 ffffffff 6 806] ------- [REQUEST 6/6 0/10]
r 0.187647408 _1_ MAC  --- 0 ARP 28 [0 ffffffff 6 806] ------- [REQUEST 6/6 0/10]
r 0.187647408 _7_ MAC  --- 0 ARP 28 [0 ffffffff 6 806] ------- [REQUEST 6/6 0/10]
r 0.187647408 _11_ MAC  --- 0 ARP 28 [0 ffffffff 6 806] ------- [REQUEST 6/6 0/10]
r 0.187647436 _2_ MAC  --- 0 ARP 28 [0 ffffffff 6 806] ------- [REQUEST 6/6 0/10]
r 0.187647436 _0_ MAC  --- 0 ARP 28 [0 ffffffff 6 806] ------- [REQUEST 6/6 0/10]
r 0.187647436 _10_ MAC  --- 0 ARP 28 [0 ffffffff 6 806] ------- [REQUEST 6/6 0/10]
r 0.187647436 _12_ MAC  --- 0 ARP 28 [0 ffffffff 6 806] ------- [REQUEST 6/6 0/10]
r 0.190045341 _6_ MAC  --- 0 ARP 28 [0 ffffffff 7 806] ------- [REQUEST 7/7 0/13]
r 0.190045341 _2_ MAC  --- 0 ARP 28 [0 ffffffff 7 806] ------- [REQUEST 7/7 0/13]
r 0.190045341 _8_ MAC  --- 0 ARP 28 [0 ffffffff 7 806] ------- [REQUEST 7/7 0/13]
r 0.190045341 _12_ MAC  --- 0 ARP 28 [0 ffffffff 7 806] ------- [REQUEST 7/7 0/13]
r 0.190045369 _3_ MAC  --- 0 ARP 28 [0 ffffffff 7 806] ------- [REQUEST 7/7 0/13]
r 0.190045369 _1_ MAC  --- 0 ARP 28 [0 ffffffff 7 806] ------- [REQUEST 7/7 0/13]
r 0.190045369 _11_ MAC  --- 0 ARP 28 [0 ffffffff 7 806] ------- [REQUEST 7/7 0/13]
r 0.190045369 _13_ MAC  --- 0 ARP 28 [0 ffffffff 7 806] ------- [REQUEST 7/7 0/13]
r 0.191428624 _10_ MAC  --- 0 ACK 5 [0 a 6 0] 
r 0.192068530 _6_ MAC  --- 0 ARP 28 [0 6 a 806] ------- [REPLY 10/10 6/6]
r 0.194660597 _1_ MAC  --- 0 ARP 28 [0 ffffffff 6 806] ------- [REQUEST 6/6 0/0]
r 0.194660597 _7_ MAC  --- 0 ARP 28 [0 ffffffff 6 806] ------- [REQUEST 6/6 0/0]
r 0.194660597 _11_ MAC  --- 0 ARP 28 [0 ffffffff 6 806] ------- [REQUEST 6/6 0/0]
r 0.194660624 _2_ MAC  --- 0 ARP 28 [0 ffffffff 6 806] ------- [REQUEST 6/6 0/0]
r 0.194660624 _0_ MAC  --- 0 ARP 28 [0 ffffffff 6 806] ------- [REQUEST 6/6 0/0]
r 0.194660624 _10_ MAC  --- 0 ARP 28 [0 ffffffff 6 806] ------- [REQUEST 6/6 0/0]
r 0.194660624 _12_ MAC  --- 0 ARP 28 [0 ffffffff 6 806] ------- [REQUEST 6/6 0/0]
r 0.196002558 _13_ MAC  --- 0 ACK 5 [0 d 7 0] 
r 0.196642463 _7_ MAC  --- 0 ARP 28 [0 7 d 806] ------- [REPLY 13/13 7/7]
r 0.202020719 _6_ MAC  --- 6 ACK 5 [0 6 a 0] 
r 0.202660624 _10_ MAC  --- 6 DSR 76 [0 a 6 800] ------- [6:255 19:255 254 10] 6 [0 2] [1 2 6 19->6] [0 0 0 0->0]
r 0.206823652 _7_ MAC  --- 4 ACK 5 [0 7 d 0] 
r 0.207202691 _15_ MAC  --- 0 ARP 28 [0 ffffffff a 806] ------- [REQUEST 10/10 0/16]
r 0.207202719 _16_ MAC  --- 0 ARP 28 [0 ffffffff a 806] ------- [REQUEST 10/10 0/16]
r 0.207463558 _13_ MAC  --- 4 DSR 60 [0 d 7 800] ------- [6:255 19:255 253 13] 4 [0 2] [1 2 4 19->6] [0 0 0 0->0]
r 0.210023907 _16_ MAC  --- 0 ACK 5 [0 10 a 0] 
r 0.210663813 _10_ MAC  --- 0 ARP 28 [0 a 10 806] ------- [REPLY 16/16 10/10]
r 0.211365624 _8_ MAC  --- 0 ARP 28 [0 ffffffff d 806] ------- [REQUEST 13/13 0/19]
r 0.211365624 _14_ MAC  --- 0 ARP 28 [0 ffffffff d 806] ------- [REQUEST 13/13 0/19]
r 0.211365624 _18_ MAC  --- 0 ARP 28 [0 ffffffff d 806] ------- [REQUEST 13/13 0/19]
r 0.211365652 _9_ MAC  --- 0 ARP 28 [0 ffffffff d 806] ------- [REQUEST 13/13 0/19]
r 0.211365652 _7_ MAC  --- 0 ARP 28 [0 ffffffff d 806] ------- [REQUEST 13/13 0/19]
r 0.211365652 _19_ MAC  --- 0 ARP 28 [0 ffffffff d 806] ------- [REQUEST 13/13 0/19]
r 0.215341001 _10_ MAC  --- 6 ACK 5 [0 a 10 0] 
r 0.215786840 _19_ MAC  --- 0 ACK 5 [0 13 d 0] 
r 0.215980907 _16_ MAC  --- 6 DSR 76 [0 10 a 800] ------- [6:255 19:255 253 16] 6 [0 2] [1 2 6 19->6] [0 0 0 0->0]
r 0.216426746 _13_ MAC  --- 0 ARP 28 [0 d 13 806] ------- [REPLY 19/19 13/13]
r 0.218922974 _15_ MAC  --- 0 ARP 28 [0 ffffffff 10 806] ------- [REQUEST 16/16 0/22]
r 0.218922974 _11_ MAC  --- 0 ARP 28 [0 ffffffff 10 806] ------- [REQUEST 16/16 0/22]
r 0.218922974 _17_ MAC  --- 0 ARP 28 [0 ffffffff 10 806] ------- [REQUEST 16/16 0/22]
r 0.218922974 _21_ MAC  --- 0 ARP 28 [0 ffffffff 10 806] ------- [REQUEST 16/16 0/22]
r 0.218923001 _12_ MAC  --- 0 ARP 28 [0 ffffffff 10 806] ------- [REQUEST 16/16 0/22]
r 0.218923001 _10_ MAC  --- 0 ARP 28 [0 ffffffff 10 806] ------- [REQUEST 16/16 0/22]
r 0.218923001 _20_ MAC  --- 0 ARP 28 [0 ffffffff 10 806] ------- [REQUEST 16/16 0/22]
r 0.218923001 _22_ MAC  --- 0 ARP 28 [0 ffffffff 10 806] ------- [REQUEST 16/16 0/22]
r 0.221231935 _13_ MAC  --- 4 ACK 5 [0 d 13 0] 
r 0.221871840 _19_ MAC  --- 4 DSR 60 [0 13 d 800] ------- [6:255 19:255 252 19] 4 [0 2] [1 2 4 19->6] [0 0 0 0->0]
r 0.222064190 _22_ MAC  --- 0 ACK 5 [0 16 10 0] 
r 0.222704096 _16_ MAC  --- 0 ARP 28 [0 10 16 806] ------- [REPLY 22/22 16/16]
r 0.227061284 _16_ MAC  --- 6 ACK 5 [0 10 16 0] 
r 0.227701190 _22_ MAC  --- 6 DSR 76 [0 16 10 800] ------- [6:255 19:255 252 22] 6 [0 2] [1 2 6 19->6] [0 0 0 0->0]
r 0.227810029 _19_ MAC  --- 0 ACK 5 [0 13 d 0] 
r 0.228449935 _13_ MAC  --- 0 exp 114 [0 d 13 800] ------- [19:0 6:0 32 13] 
r 0.230323257 _21_ MAC  --- 0 ARP 28 [0 ffffffff 16 806] ------- [REQUEST 22/22 0/23]
r 0.230323257 _17_ MAC  --- 0 ARP 28 [0 ffffffff 16 806] ------- [REQUEST 22/22 0/23]
r 0.230323257 _23_ MAC  --- 0 ARP 28 [0 ffffffff 16 806] ------- [REQUEST 22/22 0/23]
r 0.230323284 _18_ MAC  --- 0 ARP 28 [0 ffffffff 16 806] ------- [REQUEST 22/22 0/23]
r 0.230323284 _16_ MAC  --- 0 ARP 28 [0 ffffffff 16 806] ------- [REQUEST 22/22 0/23]
r 0.234424390 _23_ MAC  --- 0 ACK 5 [0 17 16 0] 
r 0.235064323 _22_ MAC  --- 0 ARP 28 [0 16 17 806] ------- [REPLY 23/23 22/22]
r 0.235348123 _13_ MAC  --- 0 ACK 5 [0 d 7 0] 
r 0.235988029 _7_ MAC  --- 0 exp 114 [0 7 d 800] ------- [19:0 6:0 31 7] 
r 0.239421457 _22_ MAC  --- 6 ACK 5 [0 16 17 0] 
r 0.240061390 _23_ MAC  --- 6 DSR 76 [0 17 16 800] ------- [6:255 19:255 251 23] 6 [0 2] [1 2 6 19->6] [0 0 0 0->0]
r 0.243206162 _7_ MAC  --- 0 ACK 5 [0 7 6 0] 
r 0.243643457 _22_ MAC  --- 0 ARP 28 [0 ffffffff 17 806] ------- [REQUEST 23/23 0/19]
r 0.243643457 _18_ MAC  --- 0 ARP 28 [0 ffffffff 17 806] ------- [REQUEST 23/23 0/19]
r 0.243643457 _24_ MAC  --- 0 ARP 28 [0 ffffffff 17 806] ------- [REQUEST 23/23 0/19]
r 0.243643484 _19_ MAC  --- 0 ARP 28 [0 ffffffff 17 806] ------- [REQUEST 23/23 0/19]
r 0.243643484 _17_ MAC  --- 0 ARP 28 [0 ffffffff 17 806] ------- [REQUEST 23/23 0/19]
r 0.243846096 _6_ MAC  --- 0 exp 114 [0 6 7 800] ------- [19:0 6:0 30 6] 
r 0.247424673 _19_ MAC  --- 0 ACK 5 [0 13 17 0] 
r 0.248064579 _23_ MAC  --- 0 ARP 28 [0 17 13 806] ------- [REPLY 19/19 23/23]
r 0.253381767 _23_ MAC  --- 6 ACK 5 [0 17 13 0] 
r 0.254021673 _19_ MAC  --- 6 DSR 76 [0 13 17 800] ------- [6:255 19:255 250 19] 6 [0 2] [1 2 6 19->6] [0 0 0 0->0]
r 0.349590513 _11_ MAC  --- 10 DSR 32 [0 ffffffff a 800] ------- [10:255 4:255 32 0] 1 [1 1] [0 1 0 0->0] [0 0 0 0->0]
r 0.349590513 _15_ MAC  --- 10 DSR 32 [0 ffffffff a 800] ------- [10:255 4:255 32 0] 1 [1 1] [0 1 0 0->0] [0 0 0 0->0]
r 0.349590540 _6_ MAC  --- 10 DSR 32 [0 ffffffff a 800] ------- [10:255 4:255 32 0] 1 [1 1] [0 1 0 0->0] [0 0 0 0->0]
r 0.349590540 _16_ MAC  --- 10 DSR 32 [0 ffffffff a 800] ------- [10:255 4:255 32 0] 1 [1 1] [0 1 0 0->0] [0 0 0 0->0]
r 0.393962024 _11_ MAC  --- 12 DSR 32 [0 ffffffff a 800] ------- [10:255 4:255 32 0] 1 [1 2] [0 2 0 0->0] [0 0 0 0->0]
r 0.393962024 _15_ MAC  --- 12 DSR 32 [0 ffffffff a 800] ------- [10:255 4:255 32 0] 1 [1 2] [0 2 0 0->0] [0 0 0 0->0]
r 0.393962051 _6_ MAC  --- 12 DSR 32 [0 ffffffff a 800] ------- [10:255 4:255 32 0] 1 [1 2] [0 2 0 0->0] [0 0 0 0->0]
r 0.393962051 _16_ MAC  --- 12 DSR 32 [0 ffffffff a 800] ------- [10:255 4:255 32 0] 1 [1 2] [0 2 0 0->0] [0 0 0 0->0]
r 0.399120822 _1_ MAC  --- 12 DSR 48 [0 ffffffff 6 800] ------- [10:255 4:255 32 0] 2 [1 2] [0 2 0 0->0] [0 0 0 0->0]
r 0.399120822 _7_ MAC  --- 12 DSR 48 [0 ffffffff 6 800] ------- [10:255 4:255 32 0] 2 [1 2] [0 2 0 0->0] [0 0 0 0->0]
r 0.399120849 _2_ MAC  --- 12 DSR 48 [0 ffffffff 6 800] ------- [10:255 4:255 32 0] 2 [1 2] [0 2 0 0->0] [0 0 0 0->0]
r 0.399120849 _0_ MAC  --- 12 DSR 48 [0 ffffffff 6 800] ------- [10:255 4:255 32 0] 2 [1 2] [0 2 0 0->0] [0 0 0 0->0]
r 0.399120849 _12_ MAC  --- 12 DSR 48 [0 ffffffff 6 800] ------- [10:255 4:255 32 0] 2 [1 2] [0 2 0 0->0] [0 0 0 0->0]
r 0.400021173 _16_ MAC  --- 12 DSR 48 [0 ffffffff f 800] ------- [10:255 4:255 32 0] 2 [1 2] [0 2 0 0->0] [0 0 0 0->0]
r 0.400021173 _20_ MAC  --- 12 DSR 48 [0 ffffffff f 800] ------- [10:255 4:255 32 0] 2 [1 2] [0 2 0 0->0] [0 0 0 0->0]
r 0.400021201 _21_ MAC  --- 12 DSR 48 [0 ffffffff f 800] ------- [10:255 4:255 32 0] 2 [1 2] [0 2 0 0->0] [0 0 0 0->0]
r 0.405040965 _21_ MAC  --- 12 DSR 48 [0 ffffffff 10 800] ------- [10:255 4:255 32 0] 2 [1 2] [0 2 0 0->0] [0 0 0 0->0]
r 0.405040993 _20_ MAC  --- 12 DSR 48 [0 ffffffff 10 800] ------- [10:255 4:255 32 0] 2 [1 2] [0 2 0 0->0] [0 0 0 0->0]
r 0.405040993 _22_ MAC  --- 12 DSR 48 [0 ffffffff 10 800] ------- [10:255 4:255 32 0] 2 [1 2] [0 2 0 0->0] [0 0 0 0->0]
r 0.405575751 _0_ MAC  --- 12 DSR 68 [0 ffffffff 1 800] ------- [10:255 4:255 32 0] 3 [1 2] [0 2 0 0->0] [0 0 0 0->0]
r 0.405575751 _2_ MAC  --- 12 DSR 68 [0 ffffffff 1 800] ------- [10:255 4:255 32 0] 3 [1 2] [0 2 0 0->0] [0 0 0 0->0]
r 0.409592027 _11_ MAC  --- 12 DSR 68 [0 ffffffff c 800] ------- [10:255 4:255 32 0] 3 [1 2] [0 2 0 0->0] [0 0 0 0->0]
r 0.409592027 _13_ MAC  --- 12 DSR 68 [0 ffffffff c 800] ------- [10:255 4:255 32 0] 3 [1 2] [0 2 0 0->0] [0 0 0 0->0]
r 0.409592027 _17_ MAC  --- 12 DSR 68 [0 ffffffff c 800] ------- [10:255 4:255 32 0] 3 [1 2] [0 2 0 0->0] [0 0 0 0->0]
r 0.409592055 _16_ MAC  --- 12 DSR 68 [0 ffffffff c 800] ------- [10:255 4:255 32 0] 3 [1 2] [0 2 0 0->0] [0 0 0 0->0]
r 0.409592055 _18_ MAC  --- 12 DSR 68 [0 ffffffff c 800] ------- [10:255 4:255 32 0] 3 [1 2] [0 2 0 0->0] [0 0 0 0->0]
r 0.410256634 _3_ MAC  --- 12 DSR 68 [0 ffffffff 2 800] ------- [10:255 4:255 32 0] 3 [1 2] [0 2 0 0->0] [0 0 0 0->0]
r 0.412738639 _20_ MAC  --- 12 DSR 68 [0 ffffffff 15 800] ------- [10:255 4:255 32 0] 3 [1 2] [0 2 0 0->0] [0 0 0 0->0]
r 0.412738639 _16_ MAC  --- 12 DSR 68 [0 ffffffff 15 800] ------- [10:255 4:255 32 0] 3 [1 2] [0 2 0 0->0] [0 0 0 0->0]
r 0.412738639 _22_ MAC  --- 12 DSR 68 [0 ffffffff 15 800] ------- [10:255 4:255 32 0] 3 [1 2] [0 2 0 0->0] [0 0 0 0->0]
r 0.412738667 _17_ MAC  --- 12 DSR 68 [0 ffffffff 15 800] ------- [10:255 4:255 32 0] 3 [1 2] [0 2 0 0->0] [0 0 0 0->0]
r 0.412738667 _15_ MAC  --- 12 DSR 68 [0 ffffffff 15 800] ------- [10:255 4:255 32 0] 3 [1 2] [0 2 0 0->0] [0 0 0 0->0]
r 0.415925445 _2_ MAC  --- 12 DSR 92 [0 ffffffff 3 800] ------- [10:255 4:255 32 0] 4 [1 2] [0 2 0 0->0] [0 0 0 0->0]
r 0.415925445 _4_ MAC  --- 12 DSR 92 [0 ffffffff 3 800] ------- [10:255 4:255 32 0] 4 [1 2] [0 2 0 0->0] [0 0 0 0->0]
r 0.415925445 _8_ MAC  --- 12 DSR 92 [0 ffffffff 3 800] ------- [10:255 4:255 32 0] 4 [1 2] [0 2 0 0->0] [0 0 0 0->0]
r 0.415925472 _7_ MAC  --- 12 DSR 92 [0 ffffffff 3 800] ------- [10:255 4:255 32 0] 4 [1 2] [0 2 0 0->0] [0 0 0 0->0]
r 0.415925472 _9_ MAC  --- 12 DSR 92 [0 ffffffff 3 800] ------- [10:255 4:255 32 0] 4 [1 2] [0 2 0 0->0] [0 0 0 0->0]
r 0.416180906 _17_ MAC  --- 12 DSR 68 [0 ffffffff 16 800] ------- [10:255 4:255 32 0] 3 [1 2] [0 2 0 0->0] [0 0 0 0->0]
r 0.416180906 _23_ MAC  --- 12 DSR 68 [0 ffffffff 16 800] ------- [10:255 4:255 32 0] 3 [1 2] [0 2 0 0->0] [0 0 0 0->0]
r 0.416180934 _18_ MAC  --- 12 DSR 68 [0 ffffffff 16 800] ------- [10:255 4:255 32 0] 3 [1 2] [0 2 0 0->0] [0 0 0 0->0]
r 0.416585630 _15_ MAC  --- 12 DSR 68 [0 ffffffff 14 800] ------- [10:255 4:255 32 0] 3 [1 2] [0 2 0 0->0] [0 0 0 0->0]
r 0.419138578 _6_ MAC  --- 12 DSR 68 [0 ffffffff 7 800] ------- [10:255 4:255 32 0] 3 [1 2] [0 2 0 0->0] [0 0 0 0->0]
r 0.419138578 _2_ MAC  --- 12 DSR 68 [0 ffffffff 7 800] ------- [10:255 4:255 32 0] 3 [1 2] [0 2 0 0->0] [0 0 0 0->0]
r 0.419138578 _8_ MAC  --- 12 DSR 68 [0 ffffffff 7 800] ------- [10:255 4:255 32 0] 3 [1 2] [0 2 0 0->0] [0 0 0 0->0]
r 0.419138606 _3_ MAC  --- 12 DSR 68 [0 ffffffff 7 800] ------- [10:255 4:255 32 0] 3 [1 2] [0 2 0 0->0] [0 0 0 0->0]
r 0.419138606 _1_ MAC  --- 12 DSR 68 [0 ffffffff 7 800] ------- [10:255 4:255 32 0] 3 [1 2] [0 2 0 0->0] [0 0 0 0->0]
r 0.419138606 _11_ MAC  --- 12 DSR 68 [0 ffffffff 7 800] ------- [10:255 4:255 32 0] 3 [1 2] [0 2 0 0->0] [0 0 0 0->0]
r 0.420033283 _17_ MAC  --- 12 DSR 92 [0 ffffffff 12 800] ------- [10:255 4:255 32 0] 4 [1 2] [0 2 0 0->0] [0 0 0 0->0]
r 0.420033283 _19_ MAC  --- 12 DSR 92 [0 ffffffff 12 800] ------- [10:255 4:255 32 0] 4 [1 2] [0 2 0 0->0] [0 0 0 0->0]
r 0.420033283 _23_ MAC  --- 12 DSR 92 [0 ffffffff 12 800] ------- [10:255 4:255 32 0] 4 [1 2] [0 2 0 0->0] [0 0 0 0->0]
r 0.420033311 _14_ MAC  --- 12 DSR 92 [0 ffffffff 12 800] ------- [10:255 4:255 32 0] 4 [1 2] [0 2 0 0->0] [0 0 0 0->0]
r 0.420033311 _22_ MAC  --- 12 DSR 92 [0 ffffffff 12 800] ------- [10:255 4:255 32 0] 4 [1 2] [0 2 0 0->0] [0 0 0 0->0]
r 0.420033311 _24_ MAC  --- 12 DSR 92 [0 ffffffff 12 800] ------- [10:255 4:255 32 0] 4 [1 2] [0 2 0 0->0] [0 0 0 0->0]
r 0.422914423 _3_ MAC  --- 0 ARP 28 [0 ffffffff 4 806] ------- [REQUEST 4/4 0/3]
r 0.423714109 _12_ MAC  --- 12 DSR 92 [0 ffffffff d 800] ------- [10:255 4:255 32 0] 4 [1 2] [0 2 0 0->0] [0 0 0 0->0]
r 0.423714109 _14_ MAC  --- 12 DSR 92 [0 ffffffff d 800] ------- [10:255 4:255 32 0] 4 [1 2] [0 2 0 0->0] [0 0 0 0->0]
r 0.423714136 _7_ MAC  --- 12 DSR 92 [0 ffffffff d 800] ------- [10:255 4:255 32 0] 4 [1 2] [0 2 0 0->0] [0 0 0 0->0]
r 0.424569579 _22_ MAC  --- 12 DSR 92 [0 ffffffff 17 800] ------- [10:255 4:255 32 0] 4 [1 2] [0 2 0 0->0] [0 0 0 0->0]
r 0.424569579 _24_ MAC  --- 12 DSR 92 [0 ffffffff 17 800] ------- [10:255 4:255 32 0] 4 [1 2] [0 2 0 0->0] [0 0 0 0->0]
r 0.428458788 _7_ MAC  --- 12 DSR 120 [0 ffffffff 8 800] ------- [10:255 4:255 32 0] 5 [1 2] [0 2 0 0->0] [0 0 0 0->0]
r 0.428458788 _3_ MAC  --- 12 DSR 120 [0 ffffffff 8 800] ------- [10:255 4:255 32 0] 5 [1 2] [0 2 0 0->0] [0 0 0 0->0]
r 0.428458788 _9_ MAC  --- 12 DSR 120 [0 ffffffff 8 800] ------- [10:255 4:255 32 0] 5 [1 2] [0 2 0 0->0] [0 0 0 0->0]
r 0.428458788 _13_ MAC  --- 12 DSR 120 [0 ffffffff 8 800] ------- [10:255 4:255 32 0] 5 [1 2] [0 2 0 0->0] [0 0 0 0->0]
r 0.428458816 _4_ MAC  --- 12 DSR 120 [0 ffffffff 8 800] ------- [10:255 4:255 32 0] 5 [1 2] [0 2 0 0->0] [0 0 0 0->0]
r 0.428458816 _2_ MAC  --- 12 DSR 120 [0 ffffffff 8 800] ------- [10:255 4:255 32 0] 5 [1 2] [0 2 0 0->0] [0 0 0 0->0]
r 0.428458816 _12_ MAC  --- 12 DSR 120 [0 ffffffff 8 800] ------- [10:255 4:255 32 0] 5 [1 2] [0 2 0 0->0] [0 0 0 0->0]
r 0.428458816 _14_ MAC  --- 12 DSR 120 [0 ffffffff 8 800] ------- [10:255 4:255 32 0] 5 [1 2] [0 2 0 0->0] [0 0 0 0->0]
r 0.429625947 _23_ MAC  --- 12 DSR 120 [0 ffffffff 18 800] ------- [10:255 4:255 32 0] 5 [1 2] [0 2 0 0->0] [0 0 0 0->0]
r 0.429625947 _19_ MAC  --- 12 DSR 120 [0 ffffffff 18 800] ------- [10:255 4:255 32 0] 5 [1 2] [0 2 0 0->0] [0 0 0 0->0]
r 0.429625975 _18_ MAC  --- 12 DSR 120 [0 ffffffff 18 800] ------- [10:255 4:255 32 0] 5 [1 2] [0 2 0 0->0] [0 0 0 0->0]
r 0.433806304 _16_ MAC  --- 12 DSR 92 [0 ffffffff 11 800] ------- [10:255 4:255 32 0] 4 [1 2] [0 2 0 0->0] [0 0 0 0->0]
r 0.433806304 _12_ MAC  --- 12 DSR 92 [0 ffffffff 11 800] ------- [10:255 4:255 32 0] 4 [1 2] [0 2 0 0->0] [0 0 0 0->0]
r 0.433806304 _18_ MAC  --- 12 DSR 92 [0 ffffffff 11 800] ------- [10:255 4:255 32 0] 4 [1 2] [0 2 0 0->0] [0 0 0 0->0]
r 0.433806304 _22_ MAC  --- 12 DSR 92 [0 ffffffff 11 800] ------- [10:255 4:255 32 0] 4 [1 2] [0 2 0 0->0] [0 0 0 0->0]
r 0.433806331 _11_ MAC  --- 12 DSR 92 [0 ffffffff 11 800] ------- [10:255 4:255 32 0] 4 [1 2] [0 2 0 0->0] [0 0 0 0->0]
r 0.433806331 _21_ MAC  --- 12 DSR 92 [0 ffffffff 11 800] ------- [10:255 4:255 32 0] 4 [1 2] [0 2 0 0->0] [0 0 0 0->0]
r 0.433806331 _23_ MAC  --- 12 DSR 92 [0 ffffffff 11 800] ------- [10:255 4:255 32 0] 4 [1 2] [0 2 0 0->0] [0 0 0 0->0]
r 0.435453083 _8_ MAC  --- 12 DSR 120 [0 ffffffff 9 800] ------- [10:255 4:255 32 0] 5 [1 2] [0 2 0 0->0] [0 0 0 0->0]
r 0.435453083 _4_ MAC  --- 12 DSR 120 [0 ffffffff 9 800] ------- [10:255 4:255 32 0] 5 [1 2] [0 2 0 0->0] [0 0 0 0->0]
r 0.435453111 _3_ MAC  --- 12 DSR 120 [0 ffffffff 9 800] ------- [10:255 4:255 32 0] 5 [1 2] [0 2 0 0->0] [0 0 0 0->0]
r 0.437511556 _3_ MAC  --- 0 ACK 5 [0 3 4 0] 
r 0.438151489 _4_ MAC  --- 0 ARP 28 [0 4 3 806] ------- [REPLY 3/3 4/4]
r 0.438507989 _18_ MAC  --- 12 DSR 120 [0 ffffffff 13 800] ------- [10:255 4:255 32 0] 5 [1 2] [0 2 0 0->0] [0 0 0 0->0]
r 0.438507989 _24_ MAC  --- 12 DSR 120 [0 ffffffff 13 800] ------- [10:255 4:255 32 0] 5 [1 2] [0 2 0 0->0] [0 0 0 0->0]
r 0.438508016 _23_ MAC  --- 12 DSR 120 [0 ffffffff 13 800] ------- [10:255 4:255 32 0] 5 [1 2] [0 2 0 0->0] [0 0 0 0->0]
r 0.439783556 _3_ MAC  --- 0 ARP 28 [0 ffffffff 4 806] ------- [REQUEST 4/4 0/8]
r 0.439783556 _9_ MAC  --- 0 ARP 28 [0 ffffffff 4 806] ------- [REQUEST 4/4 0/8]
r 0.439783584 _8_ MAC  --- 0 ARP 28 [0 ffffffff 4 806] ------- [REQUEST 4/4 0/8]
r 0.442919623 _4_ MAC  --- 13 ACK 5 [0 4 3 0] 
r 0.443559556 _3_ MAC  --- 13 DSR 68 [0 3 4 800] ------- [4:255 10:255 254 3] 5 [0 2] [1 2 5 10->4] [0 0 0 0->0]
r 0.445612772 _8_ MAC  --- 0 ACK 5 [0 8 4 0] 
r 0.446252678 _4_ MAC  --- 0 ARP 28 [0 4 8 806] ------- [REPLY 8/8 4/4]
r 0.449484745 _3_ MAC  --- 0 ARP 28 [0 ffffffff 4 806] ------- [REQUEST 4/4 0/9]
r 0.451054811 _13_ MAC  --- 12 DSR 120 [0 ffffffff e 800] ------- [10:255 4:255 32 0] 5 [1 2] [0 2 0 0->0] [0 0 0 0->0]
r 0.451054811 _19_ MAC  --- 12 DSR 120 [0 ffffffff e 800] ------- [10:255 4:255 32 0] 5 [1 2] [0 2 0 0->0] [0 0 0 0->0]
r 0.451054839 _18_ MAC  --- 12 DSR 120 [0 ffffffff e 800] ------- [10:255 4:255 32 0] 5 [1 2] [0 2 0 0->0] [0 0 0 0->0]
r 0.451429623 _2_ MAC  --- 0 ARP 28 [0 ffffffff 3 806] ------- [REQUEST 3/3 0/2]
r 0.451429623 _4_ MAC  --- 0 ARP 28 [0 ffffffff 3 806] ------- [REQUEST 3/3 0/2]
r 0.451429650 _7_ MAC  --- 0 ARP 28 [0 ffffffff 3 806] ------- [REQUEST 3/3 0/2]
r 0.457706756 _2_ MAC  --- 0 ACK 5 [0 2 3 0] 
r 0.458346689 _3_ MAC  --- 0 ARP 28 [0 3 2 806] ------- [REPLY 2/2 3/3]
r 0.463727823 _3_ MAC  --- 13 ACK 5 [0 3 2 0] 
r 0.464367756 _2_ MAC  --- 13 DSR 68 [0 2 3 800] ------- [4:255 10:255 253 2] 5 [0 2] [1 2 5 10->4] [0 0 0 0->0]
r 0.468833945 _2_ MAC  --- 13 ACK 5 [0 2 6 0] 
r 0.469473850 _6_ MAC  --- 13 DSR 68 [0 6 2 800] ------- [4:255 10:255 252 6] 5 [0 2] [1 2 5 10->4] [0 0 0 0->0]
r 0.473620039 _6_ MAC  --- 13 ACK 5 [0 6 a 0] 
r 0.474259945 _10_ MAC  --- 13 DSR 68 [0 a 6 800] ------- [4:255 10:255 251 10] 5 [0 2] [1 2 5 10->4] [0 0 0 0->0]
r 0.475148866 _4_ MAC  --- 15 ACK 5 [0 4 8 0] 