v 0 eval {set sim_annotation {(at 0.0) ftp traffic from node 19 to node 6}}
s 0.001625000 _19_ MAC  --- 0 AODV 55 [0 ffffffff 13 800] ------- [19:255 -1:255 30 0] [0x2 1 1 [6 0] [19 4]] (REQUEST)
r 0.004217067 _18_ MAC  --- 0 AODV 48 [0 ffffffff 13 800] ------- [19:255 -1:255 30 0] [0x2 1 1 [6 0] [19 4]] (REQUEST)
r 0.004217067 _14_ MAC  --- 0 AODV 48 [0 ffffffff 13 800] ------- [19:255 -1:255 30 0] [0x2 1 1 [6 0] [19 4]] (REQUEST)
r 0.004217067 _24_ MAC  --- 0 AODV 48 [0 ffffffff 13 800] ------- [19:255 -1:255 30 0] [0x2 1 1 [6 0] [19 4]] (REQUEST)
r 0.004217094 _13_ MAC  --- 0 AODV 48 [0 ffffffff 13 800] ------- [19:255 -1:255 30 0] [0x2 1 1 [6 0] [19 4]] (REQUEST)
r 0.004217094 _23_ MAC  --- 0 AODV 48 [0 ffffffff 13 800] ------- [19:255 -1:255 30 0] [0x2 1 1 [6 0] [19 4]] (REQUEST)
s 0.008006951 _24_ MAC  --- 0 AODV 55 [0 ffffffff 18 800] ------- [24:255 -1:255 29 0] [0x2 2 1 [6 0] [19 4]] (REQUEST)
s 0.009610869 _13_ MAC  --- 0 AODV 55 [0 ffffffff d 800] ------- [13:255 -1:255 29 0] [0x2 2 1 [6 0] [19 4]] (REQUEST)
D 0.009959018 _19_ MAC  LQI 0 AODV 55 [0 ffffffff 18 800] ------- [24:255 -1:255 29 0] [0x2 2 1 [6 0] [19 4]] (REQUEST)
r 0.010599018 _23_ MAC  --- 0 AODV 48 [0 ffffffff 18 800] ------- [24:255 -1:255 29 0] [0x2 2 1 [6 0] [19 4]] (REQUEST)
r 0.010599018 _29_ MAC  --- 0 AODV 48 [0 ffffffff 18 800] ------- [24:255 -1:255 29 0] [0x2 2 1 [6 0] [19 4]] (REQUEST)
r 0.010599045 _28_ MAC  --- 0 AODV 48 [0 ffffffff 18 800] ------- [24:255 -1:255 29 0] [0x2 2 1 [6 0] [19 4]] (REQUEST)
D 0.011562936 _18_ MAC  LQI 0 AODV 55 [0 ffffffff d 800] ------- [13:255 -1:255 29 0] [0x2 2 1 [6 0] [19 4]] (REQUEST)
s 0.011648324 _23_ MAC  --- 0 AODV 55 [0 ffffffff 17 800] ------- [23:255 -1:255 29 0] [0x2 2 1 [6 0] [19 4]] (REQUEST)
s 0.012182326 _14_ MAC  --- 0 AODV 55 [0 ffffffff e 800] ------- [14:255 -1:255 29 0] [0x2 2 1 [6 0] [19 4]] (REQUEST)
r 0.012202936 _12_ MAC  --- 0 AODV 48 [0 ffffffff d 800] ------- [13:255 -1:255 29 0] [0x2 2 1 [6 0] [19 4]] (REQUEST)
r 0.012202936 _8_ MAC  --- 0 AODV 48 [0 ffffffff d 800] ------- [13:255 -1:255 29 0] [0x2 2 1 [6 0] [19 4]] (REQUEST)
r 0.012202936 _14_ MAC  --- 0 AODV 48 [0 ffffffff d 800] ------- [13:255 -1:255 29 0] [0x2 2 1 [6 0] [19 4]] (REQUEST)
r 0.012202964 _9_ MAC  --- 0 AODV 48 [0 ffffffff d 800] ------- [13:255 -1:255 29 0] [0x2 2 1 [6 0] [19 4]] (REQUEST)
r 0.012202964 _7_ MAC  --- 0 AODV 48 [0 ffffffff d 800] ------- [13:255 -1:255 29 0] [0x2 2 1 [6 0] [19 4]] (REQUEST)
r 0.012202964 _17_ MAC  --- 0 AODV 48 [0 ffffffff d 800] ------- [13:255 -1:255 29 0] [0x2 2 1 [6 0] [19 4]] (REQUEST)
D 0.013600391 _18_ MAC  LQI 0 AODV 55 [0 ffffffff 17 800] ------- [23:255 -1:255 29 0] [0x2 2 1 [6 0] [19 4]] (REQUEST)
D 0.014134392 _19_ MAC  LQI 0 AODV 55 [0 ffffffff e 800] ------- [14:255 -1:255 29 0] [0x2 2 1 [6 0] [19 4]] (REQUEST)
r 0.014240391 _22_ MAC  --- 0 AODV 48 [0 ffffffff 17 800] ------- [23:255 -1:255 29 0] [0x2 2 1 [6 0] [19 4]] (REQUEST)
r 0.014240391 _24_ MAC  --- 0 AODV 48 [0 ffffffff 17 800] ------- [23:255 -1:255 29 0] [0x2 2 1 [6 0] [19 4]] (REQUEST)
r 0.014240391 _28_ MAC  --- 0 AODV 48 [0 ffffffff 17 800] ------- [23:255 -1:255 29 0] [0x2 2 1 [6 0] [19 4]] (REQUEST)
r 0.014240419 _17_ MAC  --- 0 AODV 48 [0 ffffffff 17 800] ------- [23:255 -1:255 29 0] [0x2 2 1 [6 0] [19 4]] (REQUEST)
r 0.014240419 _27_ MAC  --- 0 AODV 48 [0 ffffffff 17 800] ------- [23:255 -1:255 29 0] [0x2 2 1 [6 0] [19 4]] (REQUEST)
r 0.014240419 _29_ MAC  --- 0 AODV 48 [0 ffffffff 17 800] ------- [23:255 -1:255 29 0] [0x2 2 1 [6 0] [19 4]] (REQUEST)
r 0.014774392 _13_ MAC  --- 0 AODV 48 [0 ffffffff e 800] ------- [14:255 -1:255 29 0] [0x2 2 1 [6 0] [19 4]] (REQUEST)
r 0.014774392 _9_ MAC  --- 0 AODV 48 [0 ffffffff e 800] ------- [14:255 -1:255 29 0] [0x2 2 1 [6 0] [19 4]] (REQUEST)
r 0.014774420 _8_ MAC  --- 0 AODV 48 [0 ffffffff e 800] ------- [14:255 -1:255 29 0] [0x2 2 1 [6 0] [19 4]] (REQUEST)
s 0.014846466 _9_ MAC  --- 0 AODV 55 [0 ffffffff 9 800] ------- [9:255 -1:255 28 0] [0x2 3 1 [6 0] [19 4]] (REQUEST)
s 0.015251162 _29_ MAC  --- 0 AODV 55 [0 ffffffff 1d 800] ------- [29:255 -1:255 28 0] [0x2 3 1 [6 0] [19 4]] (REQUEST)
s 0.015790312 _7_ MAC  --- 0 AODV 55 [0 ffffffff 7 800] ------- [7:255 -1:255 28 0] [0x2 3 1 [6 0] [19 4]] (REQUEST)
D 0.016798533 _8_ MAC  LQI 0 AODV 55 [0 ffffffff 9 800] ------- [9:255 -1:255 28 0] [0x2 3 1 [6 0] [19 4]] (REQUEST)
D 0.016798561 _3_ MAC  LQI 0 AODV 55 [0 ffffffff 9 800] ------- [9:255 -1:255 28 0] [0x2 3 1 [6 0] [19 4]] (REQUEST)
D 0.016798561 _13_ MAC  LQI 0 AODV 55 [0 ffffffff 9 800] ------- [9:255 -1:255 28 0] [0x2 3 1 [6 0] [19 4]] (REQUEST)
s 0.017169805 _22_ MAC  --- 0 AODV 55 [0 ffffffff 16 800] ------- [22:255 -1:255 28 0] [0x2 3 1 [6 0] [19 4]] (REQUEST)
D 0.017203229 _28_ MAC  LQI 0 AODV 55 [0 ffffffff 1d 800] ------- [29:255 -1:255 28 0] [0x2 3 1 [6 0] [19 4]] (REQUEST)
r 0.017438533 _4_ MAC  --- 0 AODV 48 [0 ffffffff 9 800] ------- [9:255 -1:255 28 0] [0x2 3 1 [6 0] [19 4]] (REQUEST)
r 0.017438533 _14_ MAC  --- 0 AODV 48 [0 ffffffff 9 800] ------- [9:255 -1:255 28 0] [0x2 3 1 [6 0] [19 4]] (REQUEST)
r 0.017843229 _24_ MAC  --- 0 AODV 48 [0 ffffffff 1d 800] ------- [29:255 -1:255 28 0] [0x2 3 1 [6 0] [19 4]] (REQUEST)
r 0.017843229 _34_ MAC  --- 0 AODV 48 [0 ffffffff 1d 800] ------- [29:255 -1:255 28 0] [0x2 3 1 [6 0] [19 4]] (REQUEST)
r 0.017843256 _33_ MAC  --- 0 AODV 48 [0 ffffffff 1d 800] ------- [29:255 -1:255 28 0] [0x2 3 1 [6 0] [19 4]] (REQUEST)
s 0.017968505 _4_ MAC  --- 0 AODV 55 [0 ffffffff 4 800] ------- [4:255 -1:255 27 0] [0x2 4 1 [6 0] [19 4]] (REQUEST)
s 0.018145409 _12_ MAC  --- 0 AODV 55 [0 ffffffff c 800] ------- [12:255 -1:255 28 0] [0x2 3 1 [6 0] [19 4]] (REQUEST)
r 0.018382379 _6_ MAC  --- 0 AODV 48 [0 ffffffff 7 800] ------- [7:255 -1:255 28 0] [0x2 3 1 [6 0] [19 4]] (REQUEST)
r 0.018382379 _2_ MAC  --- 0 AODV 48 [0 ffffffff 7 800] ------- [7:255 -1:255 28 0] [0x2 3 1 [6 0] [19 4]] (REQUEST)
r 0.018382379 _12_ MAC  --- 0 AODV 48 [0 ffffffff 7 800] ------- [7:255 -1:255 28 0] [0x2 3 1 [6 0] [19 4]] (REQUEST)
r 0.018382406 _1_ MAC  --- 0 AODV 48 [0 ffffffff 7 800] ------- [7:255 -1:255 28 0] [0x2 3 1 [6 0] [19 4]] (REQUEST)
r 0.018382406 _11_ MAC  --- 0 AODV 48 [0 ffffffff 7 800] ------- [7:255 -1:255 28 0] [0x2 3 1 [6 0] [19 4]] (REQUEST)
D 0.019121872 _17_ MAC  LQI 0 AODV 55 [0 ffffffff 16 800] ------- [22:255 -1:255 28 0] [0x2 3 1 [6 0] [19 4]] (REQUEST)
D 0.019121872 _23_ MAC  LQI 0 AODV 55 [0 ffffffff 16 800] ------- [22:255 -1:255 28 0] [0x2 3 1 [6 0] [19 4]] (REQUEST)
D 0.019121900 _18_ MAC  LQI 0 AODV 55 [0 ffffffff 16 800] ------- [22:255 -1:255 28 0] [0x2 3 1 [6 0] [19 4]] (REQUEST)
D 0.019121900 _16_ MAC  LQI 0 AODV 55 [0 ffffffff 16 800] ------- [22:255 -1:255 28 0] [0x2 3 1 [6 0] [19 4]] (REQUEST)
r 0.019761872 _21_ MAC  --- 0 AODV 48 [0 ffffffff 16 800] ------- [22:255 -1:255 28 0] [0x2 3 1 [6 0] [19 4]] (REQUEST)
r 0.019761872 _27_ MAC  --- 0 AODV 48 [0 ffffffff 16 800] ------- [22:255 -1:255 28 0] [0x2 3 1 [6 0] [19 4]] (REQUEST)
r 0.019761900 _26_ MAC  --- 0 AODV 48 [0 ffffffff 16 800] ------- [22:255 -1:255 28 0] [0x2 3 1 [6 0] [19 4]] (REQUEST)
D 0.019920599 _8_ MAC  LQI 0 AODV 55 [0 ffffffff 4 800] ------- [4:255 -1:255 27 0] [0x2 4 1 [6 0] [19 4]] (REQUEST)
s 0.020165943 _28_ MAC  --- 0 AODV 55 [0 ffffffff 1c 800] ------- [28:255 -1:255 28 0] [0x2 3 1 [6 0] [19 4]] (REQUEST)
r 0.020560572 _3_ MAC  --- 0 AODV 48 [0 ffffffff 4 800] ------- [4:255 -1:255 27 0] [0x2 4 1 [6 0] [19 4]] (REQUEST)
r 0.020560572 _9_ MAC  --- 0 AODV 48 [0 ffffffff 4 800] ------- [4:255 -1:255 27 0] [0x2 4 1 [6 0] [19 4]] (REQUEST)
r 0.020737476 _11_ MAC  --- 0 AODV 48 [0 ffffffff c 800] ------- [12:255 -1:255 28 0] [0x2 3 1 [6 0] [19 4]] (REQUEST)
r 0.020737476 _7_ MAC  --- 0 AODV 48 [0 ffffffff c 800] ------- [12:255 -1:255 28 0] [0x2 3 1 [6 0] [19 4]] (REQUEST)
r 0.020737476 _13_ MAC  --- 0 AODV 48 [0 ffffffff c 800] ------- [12:255 -1:255 28 0] [0x2 3 1 [6 0] [19 4]] (REQUEST)
r 0.020737504 _6_ MAC  --- 0 AODV 48 [0 ffffffff c 800] ------- [12:255 -1:255 28 0] [0x2 3 1 [6 0] [19 4]] (REQUEST)
s 0.020870826 _8_ MAC  --- 0 AODV 55 [0 ffffffff 8 800] ------- [8:255 -1:255 28 0] [0x2 3 1 [6 0] [19 4]] (REQUEST)
s 0.022493926 _1_ MAC  --- 0 AODV 55 [0 ffffffff 1 800] ------- [1:255 -1:255 27 0] [0x2 4 1 [6 0] [19 4]] (REQUEST)
r 0.022758010 _27_ MAC  --- 0 AODV 48 [0 ffffffff 1c 800] ------- [28:255 -1:255 28 0] [0x2 3 1 [6 0] [19 4]] (REQUEST)
r 0.022758010 _23_ MAC  --- 0 AODV 48 [0 ffffffff 1c 800] ------- [28:255 -1:255 28 0] [0x2 3 1 [6 0] [19 4]] (REQUEST)
r 0.022758010 _29_ MAC  --- 0 AODV 48 [0 ffffffff 1c 800] ------- [28:255 -1:255 28 0] [0x2 3 1 [6 0] [19 4]] (REQUEST)
r 0.022758010 _33_ MAC  --- 0 AODV 48 [0 ffffffff 1c 800] ------- [28:255 -1:255 28 0] [0x2 3 1 [6 0] [19 4]] (REQUEST)
r 0.022758038 _24_ MAC  --- 0 AODV 48 [0 ffffffff 1c 800] ------- [28:255 -1:255 28 0] [0x2 3 1 [6 0] [19 4]] (REQUEST)
r 0.022758038 _22_ MAC  --- 0 AODV 48 [0 ffffffff 1c 800] ------- [28:255 -1:255 28 0] [0x2 3 1 [6 0] [19 4]] (REQUEST)
r 0.022758038 _32_ MAC  --- 0 AODV 48 [0 ffffffff 1c 800] ------- [28:255 -1:255 28 0] [0x2 3 1 [6 0] [19 4]] (REQUEST)
r 0.022758038 _34_ MAC  --- 0 AODV 48 [0 ffffffff 1c 800] ------- [28:255 -1:255 28 0] [0x2 3 1 [6 0] [19 4]] (REQUEST)
s 0.022802773 _27_ MAC  --- 0 AODV 55 [0 ffffffff 1b 800] ------- [27:255 -1:255 28 0] [0x2 3 1 [6 0] [19 4]] (REQUEST)
D 0.022822893 _7_ MAC  LQI 0 AODV 55 [0 ffffffff 8 800] ------- [8:255 -1:255 28 0] [0x2 3 1 [6 0] [19 4]] (REQUEST)
s 0.023056455 _11_ MAC  --- 0 AODV 55 [0 ffffffff b 800] ------- [11:255 -1:255 27 0] [0x2 4 1 [6 0] [19 4]] (REQUEST)
r 0.023462893 _3_ MAC  --- 0 AODV 48 [0 ffffffff 8 800] ------- [8:255 -1:255 28 0] [0x2 3 1 [6 0] [19 4]] (REQUEST)
r 0.023462893 _9_ MAC  --- 0 AODV 48 [0 ffffffff 8 800] ------- [8:255 -1:255 28 0] [0x2 3 1 [6 0] [19 4]] (REQUEST)
r 0.023462893 _13_ MAC  --- 0 AODV 48 [0 ffffffff 8 800] ------- [8:255 -1:255 28 0] [0x2 3 1 [6 0] [19 4]] (REQUEST)
r 0.023462920 _4_ MAC  --- 0 AODV 48 [0 ffffffff 8 800] ------- [8:255 -1:255 28 0] [0x2 3 1 [6 0] [19 4]] (REQUEST)
r 0.023462920 _12_ MAC  --- 0 AODV 48 [0 ffffffff 8 800] ------- [8:255 -1:255 28 0] [0x2 3 1 [6 0] [19 4]] (REQUEST)
r 0.023462920 _14_ MAC  --- 0 AODV 48 [0 ffffffff 8 800] ------- [8:255 -1:255 28 0] [0x2 3 1 [6 0] [19 4]] (REQUEST)
s 0.023560817 _18_ MAC  --- 0 AODV 55 [0 ffffffff 12 800] ------- [18:255 -1:255 29 0] [0x2 2 1 [6 0] [19 4]] (REQUEST)
s 0.024115709 _3_ MAC  --- 0 AODV 55 [0 ffffffff 3 800] ------- [3:255 -1:255 26 0] [0x2 5 1 [6 0] [19 4]] (REQUEST)
D 0.024445993 _2_ MAC  LQI 0 AODV 55 [0 ffffffff 1 800] ------- [1:255 -1:255 27 0] [0x2 4 1 [6 0] [19 4]] (REQUEST)
D 0.024445993 _6_ MAC  LQI 0 AODV 55 [0 ffffffff 1 800] ------- [1:255 -1:255 27 0] [0x2 4 1 [6 0] [19 4]] (REQUEST)
D 0.024446021 _5_ MAC  LQI 0 AODV 55 [0 ffffffff 1 800] ------- [1:255 -1:255 27 0] [0x2 4 1 [6 0] [19 4]] (REQUEST)
D 0.024754840 _22_ MAC  LQI 0 AODV 55 [0 ffffffff 1b 800] ------- [27:255 -1:255 28 0] [0x2 3 1 [6 0] [19 4]] (REQUEST)
D 0.025008521 _12_ MAC  LQI 0 AODV 55 [0 ffffffff b 800] ------- [11:255 -1:255 27 0] [0x2 4 1 [6 0] [19 4]] (REQUEST)
D 0.025008549 _7_ MAC  LQI 0 AODV 55 [0 ffffffff b 800] ------- [11:255 -1:255 27 0] [0x2 4 1 [6 0] [19 4]] (REQUEST)
r 0.025085993 _0_ MAC  --- 0 AODV 48 [0 ffffffff 1 800] ------- [1:255 -1:255 27 0] [0x2 4 1 [6 0] [19 4]] (REQUEST)
r 0.025394840 _26_ MAC  --- 0 AODV 48 [0 ffffffff 1b 800] ------- [27:255 -1:255 28 0] [0x2 3 1 [6 0] [19 4]] (REQUEST)
r 0.025394840 _28_ MAC  --- 0 AODV 48 [0 ffffffff 1b 800] ------- [27:255 -1:255 28 0] [0x2 3 1 [6 0] [19 4]] (REQUEST)
r 0.025394840 _32_ MAC  --- 0 AODV 48 [0 ffffffff 1b 800] ------- [27:255 -1:255 28 0] [0x2 3 1 [6 0] [19 4]] (REQUEST)
r 0.025394868 _21_ MAC  --- 0 AODV 48 [0 ffffffff 1b 800] ------- [27:255 -1:255 28 0] [0x2 3 1 [6 0] [19 4]] (REQUEST)
r 0.025394868 _31_ MAC  --- 0 AODV 48 [0 ffffffff 1b 800] ------- [27:255 -1:255 28 0] [0x2 3 1 [6 0] [19 4]] (REQUEST)
r 0.025394868 _33_ MAC  --- 0 AODV 48 [0 ffffffff 1b 800] ------- [27:255 -1:255 28 0] [0x2 3 1 [6 0] [19 4]] (REQUEST)
D 0.025512884 _17_ MAC  LQI 0 AODV 55 [0 ffffffff 12 800] ------- [18:255 -1:255 29 0] [0x2 2 1 [6 0] [19 4]] (REQUEST)
D 0.025512884 _23_ MAC  LQI 0 AODV 55 [0 ffffffff 12 800] ------- [18:255 -1:255 29 0] [0x2 2 1 [6 0] [19 4]] (REQUEST)
s 0.025619613 _21_ MAC  --- 0 AODV 55 [0 ffffffff 15 800] ------- [21:255 -1:255 27 0] [0x2 4 1 [6 0] [19 4]] (REQUEST)
r 0.025648521 _10_ MAC  --- 0 AODV 48 [0 ffffffff b 800] ------- [11:255 -1:255 27 0] [0x2 4 1 [6 0] [19 4]] (REQUEST)
r 0.025648521 _16_ MAC  --- 0 AODV 48 [0 ffffffff b 800] ------- [11:255 -1:255 27 0] [0x2 4 1 [6 0] [19 4]] (REQUEST)
r 0.025648549 _15_ MAC  --- 0 AODV 48 [0 ffffffff b 800] ------- [11:255 -1:255 27 0] [0x2 4 1 [6 0] [19 4]] (REQUEST)
s 0.025704884 _17_ MAC  --- 0 AODV 55 [0 ffffffff 11 800] ------- [17:255 -1:255 28 0] [0x2 3 1 [6 0] [19 4]] (REQUEST)
s 0.025813349 _34_ MAC  --- 0 AODV 55 [0 ffffffff 22 800] ------- [34:255 -1:255 27 0] [0x2 4 1 [6 0] [19 4]] (REQUEST)
r 0.026152884 _13_ MAC  --- 0 AODV 48 [0 ffffffff 12 800] ------- [18:255 -1:255 29 0] [0x2 2 1 [6 0] [19 4]] (REQUEST)
r 0.026152884 _19_ MAC  --- 0 AODV 48 [0 ffffffff 12 800] ------- [18:255 -1:255 29 0] [0x2 2 1 [6 0] [19 4]] (REQUEST)
r 0.026152911 _14_ MAC  --- 0 AODV 48 [0 ffffffff 12 800] ------- [18:255 -1:255 29 0] [0x2 2 1 [6 0] [19 4]] (REQUEST)
r 0.026152911 _24_ MAC  --- 0 AODV 48 [0 ffffffff 12 800] ------- [18:255 -1:255 29 0] [0x2 2 1 [6 0] [19 4]] (REQUEST)
s 0.026362972 _0_ MAC  --- 0 AODV 55 [0 ffffffff 0 800] ------- [0:255 -1:255 26 0] [0x2 5 1 [6 0] [19 4]] (REQUEST)
r 0.026707775 _4_ MAC  --- 0 AODV 48 [0 ffffffff 3 800] ------- [3:255 -1:255 26 0] [0x2 5 1 [6 0] [19 4]] (REQUEST)
r 0.026707775 _8_ MAC  --- 0 AODV 48 [0 ffffffff 3 800] ------- [3:255 -1:255 26 0] [0x2 5 1 [6 0] [19 4]] (REQUEST)
r 0.026707803 _9_ MAC  --- 0 AODV 48 [0 ffffffff 3 800] ------- [3:255 -1:255 26 0] [0x2 5 1 [6 0] [19 4]] (REQUEST)
D 0.027571680 _16_ MAC  LQI 0 AODV 55 [0 ffffffff 15 800] ------- [21:255 -1:255 27 0] [0x2 4 1 [6 0] [19 4]] (REQUEST)
D 0.027571680 _22_ MAC  LQI 0 AODV 55 [0 ffffffff 15 800] ------- [21:255 -1:255 27 0] [0x2 4 1 [6 0] [19 4]] (REQUEST)
s 0.027746525 _2_ MAC  --- 0 AODV 55 [0 ffffffff 2 800] ------- [2:255 -1:255 27 0] [0x2 4 1 [6 0] [19 4]] (REQUEST)
r 0.028211680 _20_ MAC  --- 0 AODV 48 [0 ffffffff 15 800] ------- [21:255 -1:255 27 0] [0x2 4 1 [6 0] [19 4]] (REQUEST)
r 0.028211680 _26_ MAC  --- 0 AODV 48 [0 ffffffff 15 800] ------- [21:255 -1:255 27 0] [0x2 4 1 [6 0] [19 4]] (REQUEST)
r 0.028211707 _15_ MAC  --- 0 AODV 48 [0 ffffffff 15 800] ------- [21:255 -1:255 27 0] [0x2 4 1 [6 0] [19 4]] (REQUEST)
r 0.028211707 _25_ MAC  --- 0 AODV 48 [0 ffffffff 15 800] ------- [21:255 -1:255 27 0] [0x2 4 1 [6 0] [19 4]] (REQUEST)
r 0.028211707 _27_ MAC  --- 0 AODV 48 [0 ffffffff 15 800] ------- [21:255 -1:255 27 0] [0x2 4 1 [6 0] [19 4]] (REQUEST)
r 0.028296950 _12_ MAC  --- 0 AODV 48 [0 ffffffff 11 800] ------- [17:255 -1:255 28 0] [0x2 3 1 [6 0] [19 4]] (REQUEST)
r 0.028296950 _18_ MAC  --- 0 AODV 48 [0 ffffffff 11 800] ------- [17:255 -1:255 28 0] [0x2 3 1 [6 0] [19 4]] (REQUEST)
r 0.028296978 _13_ MAC  --- 0 AODV 48 [0 ffffffff 11 800] ------- [17:255 -1:255 28 0] [0x2 3 1 [6 0] [19 4]] (REQUEST)
r 0.028296978 _11_ MAC  --- 0 AODV 48 [0 ffffffff 11 800] ------- [17:255 -1:255 28 0] [0x2 3 1 [6 0] [19 4]] (REQUEST)
r 0.028296978 _23_ MAC  --- 0 AODV 48 [0 ffffffff 11 800] ------- [17:255 -1:255 28 0] [0x2 3 1 [6 0] [19 4]] (REQUEST)
D 0.028315039 _1_ MAC  LQI 0 AODV 55 [0 ffffffff 0 800] ------- [0:255 -1:255 26 0] [0x2 5 1 [6 0] [19 4]] (REQUEST)
D 0.028315067 _6_ MAC  LQI 0 AODV 55 [0 ffffffff 0 800] ------- [0:255 -1:255 26 0] [0x2 5 1 [6 0] [19 4]] (REQUEST)
r 0.028405415 _33_ MAC  --- 0 AODV 48 [0 ffffffff 22 800] ------- [34:255 -1:255 27 0] [0x2 4 1 [6 0] [19 4]] (REQUEST)
r 0.028405415 _29_ MAC  --- 0 AODV 48 [0 ffffffff 22 800] ------- [34:255 -1:255 27 0] [0x2 4 1 [6 0] [19 4]] (REQUEST)
r 0.028405415 _39_ MAC  --- 0 AODV 48 [0 ffffffff 22 800] ------- [34:255 -1:255 27 0] [0x2 4 1 [6 0] [19 4]] (REQUEST)
r 0.028405443 _28_ MAC  --- 0 AODV 48 [0 ffffffff 22 800] ------- [34:255 -1:255 27 0] [0x2 4 1 [6 0] [19 4]] (REQUEST)
r 0.028405443 _38_ MAC  --- 0 AODV 48 [0 ffffffff 22 800] ------- [34:255 -1:255 27 0] [0x2 4 1 [6 0] [19 4]] (REQUEST)
r 0.028955039 _5_ MAC  --- 0 AODV 48 [0 ffffffff 0 800] ------- [0:255 -1:255 26 0] [0x2 5 1 [6 0] [19 4]] (REQUEST)
r 0.030338592 _3_ MAC  --- 0 AODV 48 [0 ffffffff 2 800] ------- [2:255 -1:255 27 0] [0x2 4 1 [6 0] [19 4]] (REQUEST)
r 0.030338592 _7_ MAC  --- 0 AODV 48 [0 ffffffff 2 800] ------- [2:255 -1:255 27 0] [0x2 4 1 [6 0] [19 4]] (REQUEST)
r 0.030338619 _8_ MAC  --- 0 AODV 48 [0 ffffffff 2 800] ------- [2:255 -1:255 27 0] [0x2 4 1 [6 0] [19 4]] (REQUEST)
s 0.030699908 _26_ MAC  --- 0 AODV 55 [0 ffffffff 1a 800] ------- [26:255 -1:255 27 0] [0x2 4 1 [6 0] [19 4]] (REQUEST)
s 0.030764481 _31_ MAC  --- 0 AODV 55 [0 ffffffff 1f 800] ------- [31:255 -1:255 27 0] [0x2 4 1 [6 0] [19 4]] (REQUEST)
s 0.031952652 _15_ MAC  --- 0 AODV 55 [0 ffffffff f 800] ------- [15:255 -1:255 26 0] [0x2 5 1 [6 0] [19 4]] (REQUEST)
D 0.032651975 _25_ MAC  LQI 0 AODV 55 [0 ffffffff 1a 800] ------- [26:255 -1:255 27 0] [0x2 4 1 [6 0] [19 4]] (REQUEST)
D 0.032651975 _21_ MAC  LQI 0 AODV 55 [0 ffffffff 1a 800] ------- [26:255 -1:255 27 0] [0x2 4 1 [6 0] [19 4]] (REQUEST)
D 0.032651975 _27_ MAC  LQI 0 AODV 55 [0 ffffffff 1a 800] ------- [26:255 -1:255 27 0] [0x2 4 1 [6 0] [19 4]] (REQUEST)
D 0.032716548 _30_ MAC  LQI 0 AODV 55 [0 ffffffff 1f 800] ------- [31:255 -1:255 27 0] [0x2 4 1 [6 0] [19 4]] (REQUEST)
D 0.032716548 _32_ MAC  LQI 0 AODV 55 [0 ffffffff 1f 800] ------- [31:255 -1:255 27 0] [0x2 4 1 [6 0] [19 4]] (REQUEST)
r 0.033292003 _22_ MAC  --- 0 AODV 48 [0 ffffffff 1a 800] ------- [26:255 -1:255 27 0] [0x2 4 1 [6 0] [19 4]] (REQUEST)
r 0.033356548 _36_ MAC  --- 0 AODV 48 [0 ffffffff 1f 800] ------- [31:255 -1:255 27 0] [0x2 4 1 [6 0] [19 4]] (REQUEST)
r 0.033356575 _35_ MAC  --- 0 AODV 48 [0 ffffffff 1f 800] ------- [31:255 -1:255 27 0] [0x2 4 1 [6 0] [19 4]] (REQUEST)
r 0.033356575 _37_ MAC  --- 0 AODV 48 [0 ffffffff 1f 800] ------- [31:255 -1:255 27 0] [0x2 4 1 [6 0] [19 4]] (REQUEST)
s 0.033388379 _6_ MAC  --- 0 ARP 35 [0 ffffffff 6 806] ------- [REQUEST 6/6 0/7]
s 0.033821445 _25_ MAC  --- 0 AODV 55 [0 ffffffff 19 800] ------- [25:255 -1:255 26 0] [0x2 5 1 [6 0] [19 4]] (REQUEST)
D 0.033904719 _10_ MAC  LQI 0 AODV 55 [0 ffffffff f 800] ------- [15:255 -1:255 26 0] [0x2 5 1 [6 0] [19 4]] (REQUEST)
D 0.033904719 _20_ MAC  LQI 0 AODV 55 [0 ffffffff f 800] ------- [15:255 -1:255 26 0] [0x2 5 1 [6 0] [19 4]] (REQUEST)
r 0.034544719 _16_ MAC  --- 0 AODV 48 [0 ffffffff f 800] ------- [15:255 -1:255 26 0] [0x2 5 1 [6 0] [19 4]] (REQUEST)
D 0.034700445 _11_ MAC  LQI 0 ARP 35 [0 ffffffff 6 806] ------- [REQUEST 6/6 0/7]
s 0.035238901 _10_ MAC  --- 0 AODV 55 [0 ffffffff a 800] ------- [10:255 -1:255 26 0] [0x2 5 1 [6 0] [19 4]] (REQUEST)
r 0.035340445 _5_ MAC  --- 0 ARP 28 [0 ffffffff 6 806] ------- [REQUEST 6/6 0/7]
r 0.035340445 _1_ MAC  --- 0 ARP 28 [0 ffffffff 6 806] ------- [REQUEST 6/6 0/7]
r 0.035340445 _7_ MAC  --- 0 ARP 28 [0 ffffffff 6 806] ------- [REQUEST 6/6 0/7]
r 0.035340473 _2_ MAC  --- 0 ARP 28 [0 ffffffff 6 806] ------- [REQUEST 6/6 0/7]
r 0.035340473 _0_ MAC  --- 0 ARP 28 [0 ffffffff 6 806] ------- [REQUEST 6/6 0/7]
r 0.035340473 _12_ MAC  --- 0 ARP 28 [0 ffffffff 6 806] ------- [REQUEST 6/6 0/7]
s 0.035665445 _7_ MAC  --- 0 ARP 35 [0 6 7 806] ------- [REPLY 7/7 6/6]
D 0.035773539 _21_ MAC  LQI 0 AODV 55 [0 ffffffff 19 800] ------- [25:255 -1:255 26 0] [0x2 5 1 [6 0] [19 4]] (REQUEST)
s 0.036078119 _32_ MAC  --- 0 AODV 55 [0 ffffffff 20 800] ------- [32:255 -1:255 27 0] [0x2 4 1 [6 0] [19 4]] (REQUEST)
r 0.036413511 _26_ MAC  --- 0 AODV 48 [0 ffffffff 19 800] ------- [25:255 -1:255 26 0] [0x2 5 1 [6 0] [19 4]] (REQUEST)
r 0.036413511 _30_ MAC  --- 0 AODV 48 [0 ffffffff 19 800] ------- [25:255 -1:255 26 0] [0x2 5 1 [6 0] [19 4]] (REQUEST)
r 0.036413539 _31_ MAC  --- 0 AODV 48 [0 ffffffff 19 800] ------- [25:255 -1:255 26 0] [0x2 5 1 [6 0] [19 4]] (REQUEST)
s 0.036675184 _35_ MAC  --- 0 AODV 55 [0 ffffffff 23 800] ------- [35:255 -1:255 26 0] [0x2 5 1 [6 0] [19 4]] (REQUEST)
D 0.036977512 _6_ MAC  LQI 0 ARP 35 [0 6 7 806] ------- [REPLY 7/7 6/6]
D 0.037190968 _11_ MAC  LQI 0 AODV 55 [0 ffffffff a 800] ------- [10:255 -1:255 26 0] [0x2 5 1 [6 0] [19 4]] (REQUEST)
r 0.037830968 _5_ MAC  --- 0 AODV 48 [0 ffffffff a 800] ------- [10:255 -1:255 26 0] [0x2 5 1 [6 0] [19 4]] (REQUEST)
r 0.037830968 _15_ MAC  --- 0 AODV 48 [0 ffffffff a 800] ------- [10:255 -1:255 26 0] [0x2 5 1 [6 0] [19 4]] (REQUEST)
r 0.037830995 _16_ MAC  --- 0 AODV 48 [0 ffffffff a 800] ------- [10:255 -1:255 26 0] [0x2 5 1 [6 0] [19 4]] (REQUEST)
D 0.038030186 _31_ MAC  LQI 0 AODV 55 [0 ffffffff 20 800] ------- [32:255 -1:255 27 0] [0x2 4 1 [6 0] [19 4]] (REQUEST)
D 0.038627251 _36_ MAC  LQI 0 AODV 55 [0 ffffffff 23 800] ------- [35:255 -1:255 26 0] [0x2 5 1 [6 0] [19 4]] (REQUEST)
r 0.038670186 _27_ MAC  --- 0 AODV 48 [0 ffffffff 20 800] ------- [32:255 -1:255 27 0] [0x2 4 1 [6 0] [19 4]] (REQUEST)
r 0.038670186 _33_ MAC  --- 0 AODV 48 [0 ffffffff 20 800] ------- [32:255 -1:255 27 0] [0x2 4 1 [6 0] [19 4]] (REQUEST)
r 0.038670186 _37_ MAC  --- 0 AODV 48 [0 ffffffff 20 800] ------- [32:255 -1:255 27 0] [0x2 4 1 [6 0] [19 4]] (REQUEST)
r 0.038670214 _28_ MAC  --- 0 AODV 48 [0 ffffffff 20 800] ------- [32:255 -1:255 27 0] [0x2 4 1 [6 0] [19 4]] (REQUEST)
r 0.038670214 _26_ MAC  --- 0 AODV 48 [0 ffffffff 20 800] ------- [32:255 -1:255 27 0] [0x2 4 1 [6 0] [19 4]] (REQUEST)
r 0.038670214 _38_ MAC  --- 0 AODV 48 [0 ffffffff 20 800] ------- [32:255 -1:255 27 0] [0x2 4 1 [6 0] [19 4]] (REQUEST)
s 0.038672638 _38_ MAC  --- 0 AODV 55 [0 ffffffff 26 800] ------- [38:255 -1:255 26 0] [0x2 5 1 [6 0] [19 4]] (REQUEST)
s 0.039121445 _7_ MAC  --- 0 ARP 35 [0 6 7 806] ------- [REPLY 7/7 6/6]
r 0.039267251 _30_ MAC  --- 0 AODV 48 [0 ffffffff 23 800] ------- [35:255 -1:255 26 0] [0x2 5 1 [6 0] [19 4]] (REQUEST)
s 0.040055280 _5_ MAC  --- 0 AODV 55 [0 ffffffff 5 800] ------- [5:255 -1:255 25 0] [0x2 6 1 [6 0] [19 4]] (REQUEST)
s 0.040220868 _20_ MAC  --- 0 AODV 55 [0 ffffffff 14 800] ------- [20:255 -1:255 26 0] [0x2 5 1 [6 0] [19 4]] (REQUEST)
D 0.040433512 _6_ MAC  LQI 0 ARP 35 [0 6 7 806] ------- [REPLY 7/7 6/6]
s 0.041209737 _37_ MAC  --- 0 AODV 55 [0 ffffffff 25 800] ------- [37:255 -1:255 26 0] [0x2 5 1 [6 0] [19 4]] (REQUEST)
r 0.041264705 _37_ MAC  --- 0 AODV 48 [0 ffffffff 26 800] ------- [38:255 -1:255 26 0] [0x2 5 1 [6 0] [19 4]] (REQUEST)
r 0.041264705 _33_ MAC  --- 0 AODV 48 [0 ffffffff 26 800] ------- [38:255 -1:255 26 0] [0x2 5 1 [6 0] [19 4]] (REQUEST)
r 0.041264705 _39_ MAC  --- 0 AODV 48 [0 ffffffff 26 800] ------- [38:255 -1:255 26 0] [0x2 5 1 [6 0] [19 4]] (REQUEST)
r 0.041264733 _34_ MAC  --- 0 AODV 48 [0 ffffffff 26 800] ------- [38:255 -1:255 26 0] [0x2 5 1 [6 0] [19 4]] (REQUEST)
r 0.041264733 _32_ MAC  --- 0 AODV 48 [0 ffffffff 26 800] ------- [38:255 -1:255 26 0] [0x2 5 1 [6 0] [19 4]] (REQUEST)
D 0.042007374 _1_ MAC  LQI 0 AODV 55 [0 ffffffff 5 800] ------- [5:255 -1:255 25 0] [0x2 6 1 [6 0] [19 4]] (REQUEST)
D 0.042007374 _11_ MAC  LQI 0 AODV 55 [0 ffffffff 5 800] ------- [5:255 -1:255 25 0] [0x2 6 1 [6 0] [19 4]] (REQUEST)
s 0.042257445 _7_ MAC  --- 0 ARP 35 [0 6 7 806] ------- [REPLY 7/7 6/6]
r 0.042647346 _0_ MAC  --- 0 AODV 48 [0 ffffffff 5 800] ------- [5:255 -1:255 25 0] [0x2 6 1 [6 0] [19 4]] (REQUEST)
r 0.042647346 _10_ MAC  --- 0 AODV 48 [0 ffffffff 5 800] ------- [5:255 -1:255 25 0] [0x2 6 1 [6 0] [19 4]] (REQUEST)
r 0.042812935 _15_ MAC  --- 0 AODV 48 [0 ffffffff 14 800] ------- [20:255 -1:255 26 0] [0x2 5 1 [6 0] [19 4]] (REQUEST)
r 0.042812935 _21_ MAC  --- 0 AODV 48 [0 ffffffff 14 800] ------- [20:255 -1:255 26 0] [0x2 5 1 [6 0] [19 4]] (REQUEST)
r 0.042812935 _25_ MAC  --- 0 AODV 48 [0 ffffffff 14 800] ------- [20:255 -1:255 26 0] [0x2 5 1 [6 0] [19 4]] (REQUEST)
r 0.042812963 _16_ MAC  --- 0 AODV 48 [0 ffffffff 14 800] ------- [20:255 -1:255 26 0] [0x2 5 1 [6 0] [19 4]] (REQUEST)
r 0.042812963 _26_ MAC  --- 0 AODV 48 [0 ffffffff 14 800] ------- [20:255 -1:255 26 0] [0x2 5 1 [6 0] [19 4]] (REQUEST)
s 0.043676076 _30_ MAC  --- 0 AODV 55 [0 ffffffff 1e 800] ------- [30:255 -1:255 25 0] [0x2 6 1 [6 0] [19 4]] (REQUEST)
s 0.043761512 _6_ MAC  --- 0 ACK 5 [0 7 6 0] 
r 0.043801804 _36_ MAC  --- 0 AODV 48 [0 ffffffff 25 800] ------- [37:255 -1:255 26 0] [0x2 5 1 [6 0] [19 4]] (REQUEST)
r 0.043801804 _32_ MAC  --- 0 AODV 48 [0 ffffffff 25 800] ------- [37:255 -1:255 26 0] [0x2 5 1 [6 0] [19 4]] (REQUEST)
r 0.043801804 _38_ MAC  --- 0 AODV 48 [0 ffffffff 25 800] ------- [37:255 -1:255 26 0] [0x2 5 1 [6 0] [19 4]] (REQUEST)
r 0.043801831 _33_ MAC  --- 0 AODV 48 [0 ffffffff 25 800] ------- [37:255 -1:255 26 0] [0x2 5 1 [6 0] [19 4]] (REQUEST)
r 0.043801831 _31_ MAC  --- 0 AODV 48 [0 ffffffff 25 800] ------- [37:255 -1:255 26 0] [0x2 5 1 [6 0] [19 4]] (REQUEST)
r 0.044113579 _7_ MAC  --- 0 ACK 5 [0 7 6 0] 
r 0.044753512 _6_ MAC  --- 0 ARP 28 [0 6 7 806] ------- [REPLY 7/7 6/6]
s 0.045765316 _16_ MAC  --- 0 AODV 55 [0 ffffffff 10 800] ------- [16:255 -1:255 26 0] [0x2 5 1 [6 0] [19 4]] (REQUEST)
s 0.046038512 _6_ MAC  --- 0 AODV 51 [0 7 6 800] ------- [6:255 19:255 30 7] [0x4 1 [6 4] 10.000000] (REPLY)
r 0.046268143 _25_ MAC  --- 0 AODV 48 [0 ffffffff 1e 800] ------- [30:255 -1:255 25 0] [0x2 6 1 [6 0] [19 4]] (REQUEST)
r 0.046268143 _31_ MAC  --- 0 AODV 48 [0 ffffffff 1e 800] ------- [30:255 -1:255 25 0] [0x2 6 1 [6 0] [19 4]] (REQUEST)
r 0.046268143 _35_ MAC  --- 0 AODV 48 [0 ffffffff 1e 800] ------- [30:255 -1:255 25 0] [0x2 6 1 [6 0] [19 4]] (REQUEST)
r 0.046268170 _26_ MAC  --- 0 AODV 48 [0 ffffffff 1e 800] ------- [30:255 -1:255 25 0] [0x2 6 1 [6 0] [19 4]] (REQUEST)
r 0.046268170 _36_ MAC  --- 0 AODV 48 [0 ffffffff 1e 800] ------- [30:255 -1:255 25 0] [0x2 6 1 [6 0] [19 4]] (REQUEST)
s 0.046272422 _36_ MAC  --- 0 AODV 55 [0 ffffffff 24 800] ------- [36:255 -1:255 26 0] [0x2 5 1 [6 0] [19 4]] (REQUEST)
s 0.047325797 _39_ MAC  --- 0 AODV 55 [0 ffffffff 27 800] ------- [39:255 -1:255 26 0] [0x2 5 1 [6 0] [19 4]] (REQUEST)
D 0.047717382 _11_ MAC  LQI 0 AODV 55 [0 ffffffff 10 800] ------- [16:255 -1:255 26 0] [0x2 5 1 [6 0] [19 4]] (REQUEST)
D 0.047717410 _12_ MAC  LQI 0 AODV 55 [0 ffffffff 10 800] ------- [16:255 -1:255 26 0] [0x2 5 1 [6 0] [19 4]] (REQUEST)
D 0.047717410 _10_ MAC  LQI 0 AODV 55 [0 ffffffff 10 800] ------- [16:255 -1:255 26 0] [0x2 5 1 [6 0] [19 4]] (REQUEST)
s 0.048054579 _7_ MAC  --- 0 ACK 5 [0 6 7 0] 
r 0.048357382 _15_ MAC  --- 0 AODV 48 [0 ffffffff 10 800] ------- [16:255 -1:255 26 0] [0x2 5 1 [6 0] [19 4]] (REQUEST)
r 0.048357382 _17_ MAC  --- 0 AODV 48 [0 ffffffff 10 800] ------- [16:255 -1:255 26 0] [0x2 5 1 [6 0] [19 4]] (REQUEST)
r 0.048357382 _21_ MAC  --- 0 AODV 48 [0 ffffffff 10 800] ------- [16:255 -1:255 26 0] [0x2 5 1 [6 0] [19 4]] (REQUEST)
r 0.048357410 _20_ MAC  --- 0 AODV 48 [0 ffffffff 10 800] ------- [16:255 -1:255 26 0] [0x2 5 1 [6 0] [19 4]] (REQUEST)
r 0.048357410 _22_ MAC  --- 0 AODV 48 [0 ffffffff 10 800] ------- [16:255 -1:255 26 0] [0x2 5 1 [6 0] [19 4]] (REQUEST)
r 0.048406645 _6_ MAC  --- 0 ACK 5 [0 6 7 0] 
r 0.048864489 _35_ MAC  --- 0 AODV 48 [0 ffffffff 24 800] ------- [36:255 -1:255 26 0] [0x2 5 1 [6 0] [19 4]] (REQUEST)
r 0.048864489 _31_ MAC  --- 0 AODV 48 [0 ffffffff 24 800] ------- [36:255 -1:255 26 0] [0x2 5 1 [6 0] [19 4]] (REQUEST)
r 0.048864489 _37_ MAC  --- 0 AODV 48 [0 ffffffff 24 800] ------- [36:255 -1:255 26 0] [0x2 5 1 [6 0] [19 4]] (REQUEST)
r 0.048864516 _32_ MAC  --- 0 AODV 48 [0 ffffffff 24 800] ------- [36:255 -1:255 26 0] [0x2 5 1 [6 0] [19 4]] (REQUEST)
r 0.048864516 _30_ MAC  --- 0 AODV 48 [0 ffffffff 24 800] ------- [36:255 -1:255 26 0] [0x2 5 1 [6 0] [19 4]] (REQUEST)
r 0.049046579 _7_ MAC  --- 0 AODV 44 [0 7 6 800] ------- [6:255 19:255 30 7] [0x4 1 [6 4] 10.000000] (REPLY)
s 0.049396579 _7_ MAC  --- 0 ARP 35 [0 ffffffff 7 806] ------- [REQUEST 7/7 0/13]
r 0.049917864 _38_ MAC  --- 0 AODV 48 [0 ffffffff 27 800] ------- [39:255 -1:255 26 0] [0x2 5 1 [6 0] [19 4]] (REQUEST)
r 0.049917864 _34_ MAC  --- 0 AODV 48 [0 ffffffff 27 800] ------- [39:255 -1:255 26 0] [0x2 5 1 [6 0] [19 4]] (REQUEST)
r 0.049917891 _33_ MAC  --- 0 AODV 48 [0 ffffffff 27 800] ------- [39:255 -1:255 26 0] [0x2 5 1 [6 0] [19 4]] (REQUEST)
r 0.051348645 _6_ MAC  --- 0 ARP 28 [0 ffffffff 7 806] ------- [REQUEST 7/7 0/13]
r 0.051348645 _2_ MAC  --- 0 ARP 28 [0 ffffffff 7 806] ------- [REQUEST 7/7 0/13]
r 0.051348645 _8_ MAC  --- 0 ARP 28 [0 ffffffff 7 806] ------- [REQUEST 7/7 0/13]
r 0.051348645 _12_ MAC  --- 0 ARP 28 [0 ffffffff 7 806] ------- [REQUEST 7/7 0/13]
r 0.051348673 _3_ MAC  --- 0 ARP 28 [0 ffffffff 7 806] ------- [REQUEST 7/7 0/13]
r 0.051348673 _1_ MAC  --- 0 ARP 28 [0 ffffffff 7 806] ------- [REQUEST 7/7 0/13]
r 0.051348673 _11_ MAC  --- 0 ARP 28 [0 ffffffff 7 806] ------- [REQUEST 7/7 0/13]
r 0.051348673 _13_ MAC  --- 0 ARP 28 [0 ffffffff 7 806] ------- [REQUEST 7/7 0/13]
s 0.053273673 _13_ MAC  --- 0 ARP 35 [0 7 d 806] ------- [REPLY 13/13 7/7]
s 0.054777767 _7_ MAC  --- 0 ACK 5 [0 d 7 0] 
r 0.055129861 _13_ MAC  --- 0 ACK 5 [0 d 7 0] 
r 0.055769767 _7_ MAC  --- 0 ARP 28 [0 7 d 806] ------- [REPLY 13/13 7/7]
s 0.056414767 _7_ MAC  --- 0 AODV 51 [0 d 7 800] ------- [6:255 19:255 29 13] [0x4 2 [6 4] 10.000000] (REPLY)
s 0.058430861 _13_ MAC  --- 0 ACK 5 [0 7 d 0] 
r 0.058782956 _7_ MAC  --- 0 ACK 5 [0 7 d 0] 
r 0.059422861 _13_ MAC  --- 0 AODV 44 [0 d 7 800] ------- [6:255 19:255 29 13] [0x4 2 [6 4] 10.000000] (REPLY)
s 0.062012861 _13_ MAC  --- 0 ARP 35 [0 ffffffff d 806] ------- [REQUEST 13/13 0/19]
r 0.063964928 _12_ MAC  --- 0 ARP 28 [0 ffffffff d 806] ------- [REQUEST 13/13 0/19]
r 0.063964928 _8_ MAC  --- 0 ARP 28 [0 ffffffff d 806] ------- [REQUEST 13/13 0/19]