n -t * -s 0  -x 0 -y 0 -Z 0 -z 20  -v circle -c black
n -t * -s 1  -x 0 -y 30 -Z 0 -z 20  -v circle -c black
n -t * -s 2  -x 0 -y 60 -Z 0 -z 20  -v circle -c black
n -t * -s 3  -x 0 -y 90 -Z 0 -z 20  -v circle -c black
n -t * -s 4  -x 0 -y 120 -Z 0 -z 20  -v circle -c black
n -t * -s 5  -x 30 -y 0 -Z 0 -z 20  -v circle -c black
n -t * -s 6  -x 30 -y 30 -Z 0 -z 20  -v circle -c black
n -t * -s 7  -x 30 -y 60 -Z 0 -z 20  -v circle -c black
n -t * -s 8  -x 30 -y 90 -Z 0 -z 20  -v circle -c black
n -t * -s 9  -x 30 -y 120 -Z 0 -z 20  -v circle -c black
n -t * -s 10  -x 60 -y 0 -Z 0 -z 20  -v circle -c black
n -t * -s 11  -x 60 -y 30 -Z 0 -z 20  -v circle -c black
n -t * -s 12  -x 60 -y 60 -Z 0 -z 20  -v circle -c black
n -t * -s 13  -x 60 -y 90 -Z 0 -z 20  -v circle -c black
n -t * -s 14  -x 60 -y 120 -Z 0 -z 20  -v circle -c black
n -t * -s 15  -x 90 -y 0 -Z 0 -z 20  -v circle -c black
n -t * -s 16  -x 90 -y 30 -Z 0 -z 20  -v circle -c black
n -t * -s 17  -x 90 -y 60 -Z 0 -z 20  -v circle -c black
n -t * -s 18  -x 90 -y 90 -Z 0 -z 20  -v circle -c black
n -t * -s 19  -x 90 -y 120 -Z 0 -z 20  -v circle -c black
n -t * -s 20  -x 120 -y 0 -Z 0 -z 20  -v circle -c black
n -t * -s 21  -x 120 -y 30 -Z 0 -z 20  -v circle -c black
n -t * -s 22  -x 120 -y 60 -Z 0 -z 20  -v circle -c black
n -t * -s 23  -x 120 -y 90 -Z 0 -z 20  -v circle -c black
n -t * -s 24  -x 120 -y 120 -Z 0 -z 20  -v circle -c black
n -t * -s 25  -x 150 -y 0 -Z 0 -z 20  -v circle -c black
n -t * -s 26  -x 150 -y 30 -Z 0 -z 20  -v circle -c black
n -t * -s 27  -x 150 -y 60 -Z 0 -z 20  -v circle -c black
n -t * -s 28  -x 150 -y 90 -Z 0 -z 20  -v circle -c black
n -t * -s 29  -x 150 -y 120 -Z 0 -z 20  -v circle -c black
n -t * -s 30  -x 180 -y 0 -Z 0 -z 20  -v circle -c black
n -t * -s 31  -x 180 -y 30 -Z 0 -z 20  -v circle -c black
n -t * -s 32  -x 180 -y 60 -Z 0 -z 20  -v circle -c black
n -t * -s 33  -x 180 -y 90 -Z 0 -z 20  -v circle -c black
n -t * -s 34  -x 180 -y 120 -Z 0 -z 20  -v circle -c black
n -t * -s 35  -x 210 -y 0 -Z 0 -z 20  -v circle -c black
n -t * -s 36  -x 210 -y 30 -Z 0 -z 20  -v circle -c black
n -t * -s 37  -x 210 -y 60 -Z 0 -z 20  -v circle -c black
n -t * -s 38  -x 210 -y 90 -Z 0 -z 20  -v circle -c black
n -t * -s 39  -x 210 -y 120 -Z 0 -z 20  -v circle -c black
V -t * -v 1.0a5 -a 0
W -t * -x 500 -y 500
A -t * -n 1 -p 0 -o 0x7fffffff -c 30 -a 1
A -t * -h 1 -m 1073741823 -s 0
+ -t 1.000000000 -s 0 -d -1 -p tcp -e 40 -c 2 -a 0 -i 0 -k AGT 
- -t 1.000000000 -s 0 -d -1 -p tcp -e 40 -c 2 -a 0 -i 0 -k AGT
h -t 1.000000000 -s 0 -d -1 -p tcp -e 40 -c 2 -a 0 -i 0 -k AGT
+ -t 1.000000000 -s 0 -d -1 -p tcp -e 40 -c 2 -a 0 -i 2 -k AGT 
- -t 1.000000000 -s 0 -d -1 -p tcp -e 40 -c 2 -a 0 -i 2 -k AGT
h -t 1.000000000 -s 0 -d -1 -p tcp -e 40 -c 2 -a 0 -i 2 -k AGT
+ -t 1.000000000 -s 0 -d -1 -p tcp -e 40 -c 2 -a 0 -i 4 -k AGT 
- -t 1.000000000 -s 0 -d -1 -p tcp -e 40 -c 2 -a 0 -i 4 -k AGT
h -t 1.000000000 -s 0 -d -1 -p tcp -e 40 -c 2 -a 0 -i 4 -k AGT
+ -t 1.000000000 -s 0 -d -1 -p tcp -e 40 -c 2 -a 0 -i 6 -k AGT 
- -t 1.000000000 -s 0 -d -1 -p tcp -e 40 -c 2 -a 0 -i 6 -k AGT
h -t 1.000000000 -s 0 -d -1 -p tcp -e 40 -c 2 -a 0 -i 6 -k AGT
+ -t 1.000000000 -s 0 -d -1 -p tcp -e 40 -c 2 -a 0 -i 8 -k AGT 
- -t 1.000000000 -s 0 -d -1 -p tcp -e 40 -c 2 -a 0 -i 8 -k AGT
h -t 1.000000000 -s 0 -d -1 -p tcp -e 40 -c 2 -a 0 -i 8 -k AGT
+ -t 1.000000000 -s 0 -d -1 -p tcp -e 40 -c 2 -a 0 -i 10 -k AGT 
- -t 1.000000000 -s 0 -d -1 -p tcp -e 40 -c 2 -a 0 -i 10 -k AGT
h -t 1.000000000 -s 0 -d -1 -p tcp -e 40 -c 2 -a 0 -i 10 -k AGT
+ -t 1.000000000 -s 0 -d -1 -p tcp -e 40 -c 2 -a 0 -i 12 -k AGT 
- -t 1.000000000 -s 0 -d -1 -p tcp -e 40 -c 2 -a 0 -i 12 -k AGT
h -t 1.000000000 -s 0 -d -1 -p tcp -e 40 -c 2 -a 0 -i 12 -k AGT
+ -t 1.000000000 -s 0 -d -1 -p tcp -e 40 -c 2 -a 0 -i 14 -k AGT 
- -t 1.000000000 -s 0 -d -1 -p tcp -e 40 -c 2 -a 0 -i 14 -k AGT
h -t 1.000000000 -s 0 -d -1 -p tcp -e 40 -c 2 -a 0 -i 14 -k AGT
+ -t 1.000000000 -s 0 -d -1 -p tcp -e 40 -c 2 -a 0 -i 16 -k AGT 
- -t 1.000000000 -s 0 -d -1 -p tcp -e 40 -c 2 -a 0 -i 16 -k AGT
h -t 1.000000000 -s 0 -d -1 -p tcp -e 40 -c 2 -a 0 -i 16 -k AGT
+ -t 1.000000000 -s 0 -d -1 -p tcp -e 40 -c 2 -a 0 -i 18 -k AGT 
- -t 1.000000000 -s 0 -d -1 -p tcp -e 40 -c 2 -a 0 -i 18 -k AGT
h -t 1.000000000 -s 0 -d -1 -p tcp -e 40 -c 2 -a 0 -i 18 -k AGT
+ -t 1.000000000 -s 0 -d -1 -p tcp -e 40 -c 2 -a 0 -i 20 -k AGT 
- -t 1.000000000 -s 0 -d -1 -p tcp -e 40 -c 2 -a 0 -i 20 -k AGT
h -t 1.000000000 -s 0 -d -1 -p tcp -e 40 -c 2 -a 0 -i 20 -k AGT
+ -t 1.000000000 -s 0 -d -1 -p tcp -e 40 -c 2 -a 0 -i 22 -k AGT 
- -t 1.000000000 -s 0 -d -1 -p tcp -e 40 -c 2 -a 0 -i 22 -k AGT
h -t 1.000000000 -s 0 -d -1 -p tcp -e 40 -c 2 -a 0 -i 22 -k AGT
+ -t 1.000000000 -s 0 -d -1 -p tcp -e 40 -c 2 -a 0 -i 24 -k AGT 
- -t 1.000000000 -s 0 -d -1 -p tcp -e 40 -c 2 -a 0 -i 24 -k AGT
h -t 1.000000000 -s 0 -d -1 -p tcp -e 40 -c 2 -a 0 -i 24 -k AGT
+ -t 1.000000000 -s 0 -d -1 -p tcp -e 40 -c 2 -a 0 -i 26 -k AGT 
- -t 1.000000000 -s 0 -d -1 -p tcp -e 40 -c 2 -a 0 -i 26 -k AGT
h -t 1.000000000 -s 0 -d -1 -p tcp -e 40 -c 2 -a 0 -i 26 -k AGT
+ -t 1.000000000 -s 0 -d -1 -p tcp -e 40 -c 2 -a 0 -i 28 -k AGT 
- -t 1.000000000 -s 0 -d -1 -p tcp -e 40 -c 2 -a 0 -i 28 -k AGT
h -t 1.000000000 -s 0 -d -1 -p tcp -e 40 -c 2 -a 0 -i 28 -k AGT
+ -t 1.000000000 -s 0 -d -1 -p tcp -e 40 -c 2 -a 0 -i 30 -k AGT 
- -t 1.000000000 -s 0 -d -1 -p tcp -e 40 -c 2 -a 0 -i 30 -k AGT
h -t 1.000000000 -s 0 -d -1 -p tcp -e 40 -c 2 -a 0 -i 30 -k AGT
+ -t 1.000000000 -s 0 -d -1 -p tcp -e 40 -c 2 -a 0 -i 32 -k AGT 
- -t 1.000000000 -s 0 -d -1 -p tcp -e 40 -c 2 -a 0 -i 32 -k AGT
h -t 1.000000000 -s 0 -d -1 -p tcp -e 40 -c 2 -a 0 -i 32 -k AGT
+ -t 1.000000000 -s 0 -d -1 -p tcp -e 40 -c 2 -a 0 -i 34 -k AGT 
- -t 1.000000000 -s 0 -d -1 -p tcp -e 40 -c 2 -a 0 -i 34 -k AGT
h -t 1.000000000 -s 0 -d -1 -p tcp -e 40 -c 2 -a 0 -i 34 -k AGT
+ -t 1.000000000 -s 0 -d -1 -p tcp -e 40 -c 2 -a 0 -i 36 -k AGT 
- -t 1.000000000 -s 0 -d -1 -p tcp -e 40 -c 2 -a 0 -i 36 -k AGT
h -t 1.000000000 -s 0 -d -1 -p tcp -e 40 -c 2 -a 0 -i 36 -k AGT
+ -t 1.000000000 -s 0 -d -1 -p tcp -e 40 -c 2 -a 0 -i 38 -k AGT 
- -t 1.000000000 -s 0 -d -1 -p tcp -e 40 -c 2 -a 0 -i 38 -k AGT
h -t 1.000000000 -s 0 -d -1 -p tcp -e 40 -c 2 -a 0 -i 38 -k AGT
+ -t 1.003997777 -s 0 -d -1 -p DSR -e 32 -c 2 -a 0 -i 1 -k RTR 
- -t 1.003997777 -s 0 -d -1 -p DSR -e 32 -c 2 -a 0 -i 1 -k RTR
h -t 1.003997777 -s 0 -d -1 -p DSR -e 32 -c 2 -a 0 -i 1 -k RTR
+ -t 1.013875287 -s 39 -d 0 -p DSR -e 44 -c 2 -a 0 -i 40 -k RTR 
- -t 1.013875287 -s 39 -d 0 -p DSR -e 44 -c 2 -a 0 -i 40 -k RTR
h -t 1.013875287 -s 39 -d 0 -p DSR -e 44 -c 2 -a 0 -i 40 -k RTR
+ -t 1.018363930 -s 0 -d 39 -p tcp -e 76 -c 2 -a 0 -i 0 -k RTR 
- -t 1.018363930 -s 0 -d 39 -p tcp -e 76 -c 2 -a 0 -i 0 -k RTR
h -t 1.018363930 -s 0 -d 39 -p tcp -e 76 -c 2 -a 0 -i 0 -k RTR
r -t 1.020718349 -s 39 -d 39 -p tcp -e 40 -c 2 -a 0 -i 0 -k AGT
+ -t 1.020718349 -s 39 -d -1 -p ack -e 40 -c 2 -a 0 -i 41 -k AGT 
- -t 1.020718349 -s 39 -d -1 -p ack -e 40 -c 2 -a 0 -i 41 -k AGT
h -t 1.020718349 -s 39 -d -1 -p ack -e 40 -c 2 -a 0 -i 41 -k AGT
+ -t 1.020718349 -s 39 -d 0 -p ack -e 76 -c 2 -a 0 -i 41 -k RTR 
- -t 1.020718349 -s 39 -d 0 -p ack -e 76 -c 2 -a 0 -i 41 -k RTR
h -t 1.020718349 -s 39 -d 0 -p ack -e 76 -c 2 -a 0 -i 41 -k RTR
r -t 1.023052768 -s 0 -d 0 -p ack -e 40 -c 2 -a 0 -i 41 -k AGT
+ -t 1.023052768 -s 0 -d -1 -p tcp -e 1040 -c 2 -a 0 -i 42 -k AGT 
- -t 1.023052768 -s 0 -d -1 -p tcp -e 1040 -c 2 -a 0 -i 42 -k AGT
h -t 1.023052768 -s 0 -d -1 -p tcp -e 1040 -c 2 -a 0 -i 42 -k AGT
+ -t 1.023052768 -s 0 -d -1 -p tcp -e 1040 -c 2 -a 0 -i 43 -k AGT 
- -t 1.023052768 -s 0 -d -1 -p tcp -e 1040 -c 2 -a 0 -i 43 -k AGT
h -t 1.023052768 -s 0 -d -1 -p tcp -e 1040 -c 2 -a 0 -i 43 -k AGT
+ -t 1.023052768 -s 0 -d 39 -p tcp -e 1060 -c 2 -a 0 -i 42 -k RTR 
- -t 1.023052768 -s 0 -d 39 -p tcp -e 1060 -c 2 -a 0 -i 42 -k RTR
h -t 1.023052768 -s 0 -d 39 -p tcp -e 1060 -c 2 -a 0 -i 42 -k RTR
+ -t 1.023052768 -s 0 -d 39 -p tcp -e 1060 -c 2 -a 0 -i 43 -k RTR 
- -t 1.023052768 -s 0 -d 39 -p tcp -e 1060 -c 2 -a 0 -i 43 -k RTR
h -t 1.023052768 -s 0 -d 39 -p tcp -e 1060 -c 2 -a 0 -i 43 -k RTR
r -t 1.033419186 -s 39 -d 39 -p tcp -e 1040 -c 2 -a 0 -i 42 -k AGT
+ -t 1.033419186 -s 39 -d -1 -p ack -e 40 -c 2 -a 0 -i 44 -k AGT 
- -t 1.033419186 -s 39 -d -1 -p ack -e 40 -c 2 -a 0 -i 44 -k AGT
h -t 1.033419186 -s 39 -d -1 -p ack -e 40 -c 2 -a 0 -i 44 -k AGT
+ -t 1.033419186 -s 39 -d 0 -p ack -e 76 -c 2 -a 0 -i 44 -k RTR 
- -t 1.033419186 -s 39 -d 0 -p ack -e 76 -c 2 -a 0 -i 44 -k RTR
h -t 1.033419186 -s 39 -d 0 -p ack -e 76 -c 2 -a 0 -i 44 -k RTR
r -t 1.035613605 -s 0 -d 0 -p ack -e 40 -c 2 -a 0 -i 44 -k AGT
+ -t 1.035613605 -s 0 -d -1 -p tcp -e 1040 -c 2 -a 0 -i 45 -k AGT 
- -t 1.035613605 -s 0 -d -1 -p tcp -e 1040 -c 2 -a 0 -i 45 -k AGT
h -t 1.035613605 -s 0 -d -1 -p tcp -e 1040 -c 2 -a 0 -i 45 -k AGT
+ -t 1.035613605 -s 0 -d -1 -p tcp -e 1040 -c 2 -a 0 -i 46 -k AGT 
- -t 1.035613605 -s 0 -d -1 -p tcp -e 1040 -c 2 -a 0 -i 46 -k AGT
h -t 1.035613605 -s 0 -d -1 -p tcp -e 1040 -c 2 -a 0 -i 46 -k AGT
+ -t 1.035613605 -s 0 -d 39 -p tcp -e 1060 -c 2 -a 0 -i 45 -k RTR 
- -t 1.035613605 -s 0 -d 39 -p tcp -e 1060 -c 2 -a 0 -i 45 -k RTR
h -t 1.035613605 -s 0 -d 39 -p tcp -e 1060 -c 2 -a 0 -i 45 -k RTR
+ -t 1.035613605 -s 0 -d 39 -p tcp -e 1060 -c 2 -a 0 -i 46 -k RTR 
- -t 1.035613605 -s 0 -d 39 -p tcp -e 1060 -c 2 -a 0 -i 46 -k RTR
h -t 1.035613605 -s 0 -d 39 -p tcp -e 1060 -c 2 -a 0 -i 46 -k RTR
r -t 1.045740024 -s 39 -d 39 -p tcp -e 1040 -c 2 -a 0 -i 43 -k AGT
+ -t 1.045740024 -s 39 -d -1 -p ack -e 40 -c 2 -a 0 -i 47 -k AGT 
- -t 1.045740024 -s 39 -d -1 -p ack -e 40 -c 2 -a 0 -i 47 -k AGT
h -t 1.045740024 -s 39 -d -1 -p ack -e 40 -c 2 -a 0 -i 47 -k AGT
+ -t 1.045740024 -s 39 -d 0 -p ack -e 76 -c 2 -a 0 -i 47 -k RTR 
- -t 1.045740024 -s 39 -d 0 -p ack -e 76 -c 2 -a 0 -i 47 -k RTR
h -t 1.045740024 -s 39 -d 0 -p ack -e 76 -c 2 -a 0 -i 47 -k RTR
r -t 1.048154442 -s 0 -d 0 -p ack -e 40 -c 2 -a 0 -i 47 -k AGT
+ -t 1.048154442 -s 0 -d -1 -p tcp -e 1040 -c 2 -a 0 -i 48 -k AGT 
- -t 1.048154442 -s 0 -d -1 -p tcp -e 1040 -c 2 -a 0 -i 48 -k AGT
h -t 1.048154442 -s 0 -d -1 -p tcp -e 1040 -c 2 -a 0 -i 48 -k AGT
+ -t 1.048154442 -s 0 -d -1 -p tcp -e 1040 -c 2 -a 0 -i 49 -k AGT 
- -t 1.048154442 -s 0 -d -1 -p tcp -e 1040 -c 2 -a 0 -i 49 -k AGT
h -t 1.048154442 -s 0 -d -1 -p tcp -e 1040 -c 2 -a 0 -i 49 -k AGT
+ -t 1.048154442 -s 0 -d 39 -p tcp -e 1060 -c 2 -a 0 -i 48 -k RTR 
- -t 1.048154442 -s 0 -d 39 -p tcp -e 1060 -c 2 -a 0 -i 48 -k RTR
h -t 1.048154442 -s 0 -d 39 -p tcp -e 1060 -c 2 -a 0 -i 48 -k RTR
+ -t 1.048154442 -s 0 -d 39 -p tcp -e 1060 -c 2 -a 0 -i 49 -k RTR 
- -t 1.048154442 -s 0 -d 39 -p tcp -e 1060 -c 2 -a 0 -i 49 -k RTR
h -t 1.048154442 -s 0 -d 39 -p tcp -e 1060 -c 2 -a 0 -i 49 -k RTR
+ -t 1.048363930 -s 0 -d 39 -p tcp -e 76 -c 2 -a 0 -i 2 -k RTR 
- -t 1.048363930 -s 0 -d 39 -p tcp -e 76 -c 2 -a 0 -i 2 -k RTR
h -t 1.048363930 -s 0 -d 39 -p tcp -e 76 -c 2 -a 0 -i 2 -k RTR
r -t 1.058260861 -s 39 -d 39 -p tcp -e 1040 -c 2 -a 0 -i 45 -k AGT
+ -t 1.058260861 -s 39 -d -1 -p ack -e 40 -c 2 -a 0 -i 50 -k AGT 
- -t 1.058260861 -s 39 -d -1 -p ack -e 40 -c 2 -a 0 -i 50 -k AGT
h -t 1.058260861 -s 39 -d -1 -p ack -e 40 -c 2 -a 0 -i 50 -k AGT
+ -t 1.058260861 -s 39 -d 0 -p ack -e 60 -c 2 -a 0 -i 50 -k RTR 
- -t 1.058260861 -s 39 -d 0 -p ack -e 60 -c 2 -a 0 -i 50 -k RTR
h -t 1.058260861 -s 39 -d 0 -p ack -e 60 -c 2 -a 0 -i 50 -k RTR
r -t 1.060367280 -s 0 -d 0 -p ack -e 40 -c 2 -a 0 -i 50 -k AGT
+ -t 1.060367280 -s 0 -d -1 -p tcp -e 1040 -c 2 -a 0 -i 51 -k AGT 
- -t 1.060367280 -s 0 -d -1 -p tcp -e 1040 -c 2 -a 0 -i 51 -k AGT
h -t 1.060367280 -s 0 -d -1 -p tcp -e 1040 -c 2 -a 0 -i 51 -k AGT
+ -t 1.060367280 -s 0 -d -1 -p tcp -e 1040 -c 2 -a 0 -i 52 -k AGT 
- -t 1.060367280 -s 0 -d -1 -p tcp -e 1040 -c 2 -a 0 -i 52 -k AGT
h -t 1.060367280 -s 0 -d -1 -p tcp -e 1040 -c 2 -a 0 -i 52 -k AGT
+ -t 1.060367280 -s 0 -d 39 -p tcp -e 1060 -c 2 -a 0 -i 51 -k RTR 
- -t 1.060367280 -s 0 -d 39 -p tcp -e 1060 -c 2 -a 0 -i 51 -k RTR
h -t 1.060367280 -s 0 -d 39 -p tcp -e 1060 -c 2 -a 0 -i 51 -k RTR
+ -t 1.060367280 -s 0 -d 39 -p tcp -e 1060 -c 2 -a 0 -i 52 -k RTR 
- -t 1.060367280 -s 0 -d 39 -p tcp -e 1060 -c 2 -a 0 -i 52 -k RTR
h -t 1.060367280 -s 0 -d 39 -p tcp -e 1060 -c 2 -a 0 -i 52 -k RTR
r -t 1.070713698 -s 39 -d 39 -p tcp -e 1040 -c 2 -a 0 -i 46 -k AGT
+ -t 1.070713698 -s 39 -d -1 -p ack -e 40 -c 2 -a 0 -i 53 -k AGT 
- -t 1.070713698 -s 39 -d -1 -p ack -e 40 -c 2 -a 0 -i 53 -k AGT
h -t 1.070713698 -s 39 -d -1 -p ack -e 40 -c 2 -a 0 -i 53 -k AGT
+ -t 1.070713698 -s 39 -d 0 -p ack -e 60 -c 2 -a 0 -i 53 -k RTR 
- -t 1.070713698 -s 39 -d 0 -p ack -e 60 -c 2 -a 0 -i 53 -k RTR
h -t 1.070713698 -s 39 -d 0 -p ack -e 60 -c 2 -a 0 -i 53 -k RTR
+ -t 1.078363930 -s 0 -d 39 -p tcp -e 76 -c 2 -a 0 -i 4 -k RTR 
- -t 1.078363930 -s 0 -d 39 -p tcp -e 76 -c 2 -a 0 -i 4 -k RTR
h -t 1.078363930 -s 0 -d 39 -p tcp -e 76 -c 2 -a 0 -i 4 -k RTR
r -t 1.080800923 -s 39 -d 39 -p tcp -e 1040 -c 2 -a 0 -i 48 -k AGT
+ -t 1.080800923 -s 39 -d -1 -p ack -e 40 -c 2 -a 0 -i 54 -k AGT 
- -t 1.080800923 -s 39 -d -1 -p ack -e 40 -c 2 -a 0 -i 54 -k AGT
h -t 1.080800923 -s 39 -d -1 -p ack -e 40 -c 2 -a 0 -i 54 -k AGT
+ -t 1.080800923 -s 39 -d 0 -p ack -e 60 -c 2 -a 0 -i 54 -k RTR 
- -t 1.080800923 -s 39 -d 0 -p ack -e 60 -c 2 -a 0 -i 54 -k RTR
h -t 1.080800923 -s 39 -d 0 -p ack -e 60 -c 2 -a 0 -i 54 -k RTR
r -t 1.082827342 -s 0 -d 0 -p ack -e 40 -c 2 -a 0 -i 53 -k AGT
+ -t 1.082827342 -s 0 -d -1 -p tcp -e 1040 -c 2 -a 0 -i 55 -k AGT 
- -t 1.082827342 -s 0 -d -1 -p tcp -e 1040 -c 2 -a 0 -i 55 -k AGT
h -t 1.082827342 -s 0 -d -1 -p tcp -e 1040 -c 2 -a 0 -i 55 -k AGT
+ -t 1.082827342 -s 0 -d -1 -p tcp -e 1040 -c 2 -a 0 -i 56 -k AGT 
- -t 1.082827342 -s 0 -d -1 -p tcp -e 1040 -c 2 -a 0 -i 56 -k AGT
h -t 1.082827342 -s 0 -d -1 -p tcp -e 1040 -c 2 -a 0 -i 56 -k AGT
+ -t 1.082827342 -s 0 -d 39 -p tcp -e 1060 -c 2 -a 0 -i 55 -k RTR 
- -t 1.082827342 -s 0 -d 39 -p tcp -e 1060 -c 2 -a 0 -i 55 -k RTR
h -t 1.082827342 -s 0 -d 39 -p tcp -e 1060 -c 2 -a 0 -i 55 -k RTR
+ -t 1.082827342 -s 0 -d 39 -p tcp -e 1060 -c 2 -a 0 -i 56 -k RTR 
- -t 1.082827342 -s 0 -d 39 -p tcp -e 1060 -c 2 -a 0 -i 56 -k RTR
h -t 1.082827342 -s 0 -d 39 -p tcp -e 1060 -c 2 -a 0 -i 56 -k RTR
r -t 1.085054567 -s 0 -d 0 -p ack -e 40 -c 2 -a 0 -i 54 -k AGT
+ -t 1.085054567 -s 0 -d -1 -p tcp -e 1040 -c 2 -a 0 -i 57 -k AGT 
- -t 1.085054567 -s 0 -d -1 -p tcp -e 1040 -c 2 -a 0 -i 57 -k AGT
h -t 1.085054567 -s 0 -d -1 -p tcp -e 1040 -c 2 -a 0 -i 57 -k AGT
+ -t 1.085054567 -s 0 -d -1 -p tcp -e 1040 -c 2 -a 0 -i 58 -k AGT 
- -t 1.085054567 -s 0 -d -1 -p tcp -e 1040 -c 2 -a 0 -i 58 -k AGT
h -t 1.085054567 -s 0 -d -1 -p tcp -e 1040 -c 2 -a 0 -i 58 -k AGT
+ -t 1.085054567 -s 0 -d 39 -p tcp -e 1060 -c 2 -a 0 -i 57 -k RTR 
- -t 1.085054567 -s 0 -d 39 -p tcp -e 1060 -c 2 -a 0 -i 57 -k RTR
h -t 1.085054567 -s 0 -d 39 -p tcp -e 1060 -c 2 -a 0 -i 57 -k RTR
+ -t 1.085054567 -s 0 -d 39 -p tcp -e 1060 -c 2 -a 0 -i 58 -k RTR 
- -t 1.085054567 -s 0 -d 39 -p tcp -e 1060 -c 2 -a 0 -i 58 -k RTR
h -t 1.085054567 -s 0 -d 39 -p tcp -e 1060 -c 2 -a 0 -i 58 -k RTR
r -t 1.095360986 -s 39 -d 39 -p tcp -e 1040 -c 2 -a 0 -i 49 -k AGT
+ -t 1.095360986 -s 39 -d -1 -p ack -e 40 -c 2 -a 0 -i 59 -k AGT 
- -t 1.095360986 -s 39 -d -1 -p ack -e 40 -c 2 -a 0 -i 59 -k AGT
h -t 1.095360986 -s 39 -d -1 -p ack -e 40 -c 2 -a 0 -i 59 -k AGT
+ -t 1.095360986 -s 39 -d 0 -p ack -e 60 -c 2 -a 0 -i 59 -k RTR 
- -t 1.095360986 -s 39 -d 0 -p ack -e 60 -c 2 -a 0 -i 59 -k RTR
h -t 1.095360986 -s 39 -d 0 -p ack -e 60 -c 2 -a 0 -i 59 -k RTR
r -t 1.097567404 -s 0 -d 0 -p ack -e 40 -c 2 -a 0 -i 59 -k AGT
+ -t 1.097567404 -s 0 -d -1 -p tcp -e 1040 -c 2 -a 0 -i 60 -k AGT 
- -t 1.097567404 -s 0 -d -1 -p tcp -e 1040 -c 2 -a 0 -i 60 -k AGT
h -t 1.097567404 -s 0 -d -1 -p tcp -e 1040 -c 2 -a 0 -i 60 -k AGT
+ -t 1.097567404 -s 0 -d -1 -p tcp -e 1040 -c 2 -a 0 -i 61 -k AGT 
- -t 1.097567404 -s 0 -d -1 -p tcp -e 1040 -c 2 -a 0 -i 61 -k AGT
h -t 1.097567404 -s 0 -d -1 -p tcp -e 1040 -c 2 -a 0 -i 61 -k AGT
+ -t 1.097567404 -s 0 -d 39 -p tcp -e 1060 -c 2 -a 0 -i 60 -k RTR 
- -t 1.097567404 -s 0 -d 39 -p tcp -e 1060 -c 2 -a 0 -i 60 -k RTR
h -t 1.097567404 -s 0 -d 39 -p tcp -e 1060 -c 2 -a 0 -i 60 -k RTR
+ -t 1.097567404 -s 0 -d 39 -p tcp -e 1060 -c 2 -a 0 -i 61 -k RTR 
- -t 1.097567404 -s 0 -d 39 -p tcp -e 1060 -c 2 -a 0 -i 61 -k RTR
h -t 1.097567404 -s 0 -d 39 -p tcp -e 1060 -c 2 -a 0 -i 61 -k RTR
r -t 1.099941823 -s 39 -d 39 -p tcp -e 40 -c 2 -a 0 -i 2 -k AGT
+ -t 1.099941823 -s 39 -d -1 -p ack -e 40 -c 2 -a 0 -i 62 -k AGT 
- -t 1.099941823 -s 39 -d -1 -p ack -e 40 -c 2 -a 0 -i 62 -k AGT
h -t 1.099941823 -s 39 -d -1 -p ack -e 40 -c 2 -a 0 -i 62 -k AGT
+ -t 1.099941823 -s 39 -d 0 -p ack -e 60 -c 2 -a 0 -i 62 -k RTR 
- -t 1.099941823 -s 39 -d 0 -p ack -e 60 -c 2 -a 0 -i 62 -k RTR
h -t 1.099941823 -s 39 -d 0 -p ack -e 60 -c 2 -a 0 -i 62 -k RTR
r -t 1.102248242 -s 0 -d 0 -p ack -e 40 -c 2 -a 0 -i 62 -k AGT
+ -t 1.102248242 -s 0 -d -1 -p tcp -e 1040 -c 2 -a 0 -i 63 -k AGT 
- -t 1.102248242 -s 0 -d -1 -p tcp -e 1040 -c 2 -a 0 -i 63 -k AGT
h -t 1.102248242 -s 0 -d -1 -p tcp -e 1040 -c 2 -a 0 -i 63 -k AGT
+ -t 1.102248242 -s 0 -d -1 -p tcp -e 1040 -c 2 -a 0 -i 64 -k AGT 
- -t 1.102248242 -s 0 -d -1 -p tcp -e 1040 -c 2 -a 0 -i 64 -k AGT
h -t 1.102248242 -s 0 -d -1 -p tcp -e 1040 -c 2 -a 0 -i 64 -k AGT
+ -t 1.102248242 -s 0 -d 39 -p tcp -e 1060 -c 2 -a 0 -i 63 -k RTR 
- -t 1.102248242 -s 0 -d 39 -p tcp -e 1060 -c 2 -a 0 -i 63 -k RTR
h -t 1.102248242 -s 0 -d 39 -p tcp -e 1060 -c 2 -a 0 -i 63 -k RTR
+ -t 1.102248242 -s 0 -d 39 -p tcp -e 1060 -c 2 -a 0 -i 64 -k RTR 
- -t 1.102248242 -s 0 -d 39 -p tcp -e 1060 -c 2 -a 0 -i 64 -k RTR
h -t 1.102248242 -s 0 -d 39 -p tcp -e 1060 -c 2 -a 0 -i 64 -k RTR
+ -t 1.108363930 -s 0 -d 39 -p tcp -e 60 -c 2 -a 0 -i 6 -k RTR 
- -t 1.108363930 -s 0 -d 39 -p tcp -e 60 -c 2 -a 0 -i 6 -k RTR
h -t 1.108363930 -s 0 -d 39 -p tcp -e 60 -c 2 -a 0 -i 6 -k RTR
r -t 1.112354660 -s 39 -d 39 -p tcp -e 1040 -c 2 -a 0 -i 51 -k AGT
+ -t 1.112354660 -s 39 -d -1 -p ack -e 40 -c 2 -a 0 -i 65 -k AGT 
- -t 1.112354660 -s 39 -d -1 -p ack -e 40 -c 2 -a 0 -i 65 -k AGT
h -t 1.112354660 -s 39 -d -1 -p ack -e 40 -c 2 -a 0 -i 65 -k AGT
+ -t 1.112354660 -s 39 -d 0 -p ack -e 60 -c 2 -a 0 -i 65 -k RTR 
- -t 1.112354660 -s 39 -d 0 -p ack -e 60 -c 2 -a 0 -i 65 -k RTR
h -t 1.112354660 -s 39 -d 0 -p ack -e 60 -c 2 -a 0 -i 65 -k RTR
r -t 1.114741079 -s 0 -d 0 -p ack -e 40 -c 2 -a 0 -i 65 -k AGT
+ -t 1.114741079 -s 0 -d -1 -p tcp -e 1040 -c 2 -a 0 -i 66 -k AGT 
- -t 1.114741079 -s 0 -d -1 -p tcp -e 1040 -c 2 -a 0 -i 66 -k AGT
h -t 1.114741079 -s 0 -d -1 -p tcp -e 1040 -c 2 -a 0 -i 66 -k AGT
+ -t 1.114741079 -s 0 -d -1 -p tcp -e 1040 -c 2 -a 0 -i 67 -k AGT 
- -t 1.114741079 -s 0 -d -1 -p tcp -e 1040 -c 2 -a 0 -i 67 -k AGT
h -t 1.114741079 -s 0 -d -1 -p tcp -e 1040 -c 2 -a 0 -i 67 -k AGT
+ -t 1.114741079 -s 0 -d 39 -p tcp -e 1060 -c 2 -a 0 -i 66 -k RTR 
- -t 1.114741079 -s 0 -d 39 -p tcp -e 1060 -c 2 -a 0 -i 66 -k RTR
h -t 1.114741079 -s 0 -d 39 -p tcp -e 1060 -c 2 -a 0 -i 66 -k RTR
+ -t 1.114741079 -s 0 -d 39 -p tcp -e 1060 -c 2 -a 0 -i 67 -k RTR 
- -t 1.114741079 -s 0 -d 39 -p tcp -e 1060 -c 2 -a 0 -i 67 -k RTR
h -t 1.114741079 -s 0 -d 39 -p tcp -e 1060 -c 2 -a 0 -i 67 -k RTR
r -t 1.124847498 -s 39 -d 39 -p tcp -e 1040 -c 2 -a 0 -i 52 -k AGT
+ -t 1.124847498 -s 39 -d -1 -p ack -e 40 -c 2 -a 0 -i 68 -k AGT 
- -t 1.124847498 -s 39 -d -1 -p ack -e 40 -c 2 -a 0 -i 68 -k AGT
h -t 1.124847498 -s 39 -d -1 -p ack -e 40 -c 2 -a 0 -i 68 -k AGT
+ -t 1.124847498 -s 39 -d 0 -p ack -e 60 -c 2 -a 0 -i 68 -k RTR 
- -t 1.124847498 -s 39 -d 0 -p ack -e 60 -c 2 -a 0 -i 68 -k RTR
h -t 1.124847498 -s 39 -d 0 -p ack -e 60 -c 2 -a 0 -i 68 -k RTR
r -t 1.127293916 -s 0 -d 0 -p ack -e 40 -c 2 -a 0 -i 68 -k AGT
+ -t 1.127293916 -s 0 -d -1 -p tcp -e 1040 -c 2 -a 0 -i 69 -k AGT 
- -t 1.127293916 -s 0 -d -1 -p tcp -e 1040 -c 2 -a 0 -i 69 -k AGT
h -t 1.127293916 -s 0 -d -1 -p tcp -e 1040 -c 2 -a 0 -i 69 -k AGT
+ -t 1.127293916 -s 0 -d -1 -p tcp -e 1040 -c 2 -a 0 -i 70 -k AGT 
- -t 1.127293916 -s 0 -d -1 -p tcp -e 1040 -c 2 -a 0 -i 70 -k AGT
h -t 1.127293916 -s 0 -d -1 -p tcp -e 1040 -c 2 -a 0 -i 70 -k AGT
+ -t 1.127293916 -s 0 -d 39 -p tcp -e 1060 -c 2 -a 0 -i 69 -k RTR 
- -t 1.127293916 -s 0 -d 39 -p tcp -e 1060 -c 2 -a 0 -i 69 -k RTR
h -t 1.127293916 -s 0 -d 39 -p tcp -e 1060 -c 2 -a 0 -i 69 -k RTR
+ -t 1.127293916 -s 0 -d 39 -p tcp -e 1060 -c 2 -a 0 -i 70 -k RTR 
- -t 1.127293916 -s 0 -d 39 -p tcp -e 1060 -c 2 -a 0 -i 70 -k RTR
h -t 1.127293916 -s 0 -d 39 -p tcp -e 1060 -c 2 -a 0 -i 70 -k RTR
r -t 1.129528335 -s 39 -d 39 -p tcp -e 40 -c 2 -a 0 -i 4 -k AGT
+ -t 1.129528335 -s 39 -d -1 -p ack -e 40 -c 2 -a 0 -i 71 -k AGT 
- -t 1.129528335 -s 39 -d -1 -p ack -e 40 -c 2 -a 0 -i 71 -k AGT
h -t 1.129528335 -s 39 -d -1 -p ack -e 40 -c 2 -a 0 -i 71 -k AGT
+ -t 1.129528335 -s 39 -d 0 -p ack -e 60 -c 2 -a 0 -i 71 -k RTR 
- -t 1.129528335 -s 39 -d 0 -p ack -e 60 -c 2 -a 0 -i 71 -k RTR
h -t 1.129528335 -s 39 -d 0 -p ack -e 60 -c 2 -a 0 -i 71 -k RTR
r -t 1.131734754 -s 0 -d 0 -p ack -e 40 -c 2 -a 0 -i 71 -k AGT
+ -t 1.131734754 -s 0 -d -1 -p tcp -e 1040 -c 2 -a 0 -i 72 -k AGT 
- -t 1.131734754 -s 0 -d -1 -p tcp -e 1040 -c 2 -a 0 -i 72 -k AGT
h -t 1.131734754 -s 0 -d -1 -p tcp -e 1040 -c 2 -a 0 -i 72 -k AGT
+ -t 1.131734754 -s 0 -d -1 -p tcp -e 1040 -c 2 -a 0 -i 73 -k AGT 
- -t 1.131734754 -s 0 -d -1 -p tcp -e 1040 -c 2 -a 0 -i 73 -k AGT
h -t 1.131734754 -s 0 -d -1 -p tcp -e 1040 -c 2 -a 0 -i 73 -k AGT
+ -t 1.131734754 -s 0 -d 39 -p tcp -e 1060 -c 2 -a 0 -i 72 -k RTR 
- -t 1.131734754 -s 0 -d 39 -p tcp -e 1060 -c 2 -a 0 -i 72 -k RTR
h -t 1.131734754 -s 0 -d 39 -p tcp -e 1060 -c 2 -a 0 -i 72 -k RTR
+ -t 1.131734754 -s 0 -d 39 -p tcp -e 1060 -c 2 -a 0 -i 73 -k RTR 
- -t 1.131734754 -s 0 -d 39 -p tcp -e 1060 -c 2 -a 0 -i 73 -k RTR
h -t 1.131734754 -s 0 -d 39 -p tcp -e 1060 -c 2 -a 0 -i 73 -k RTR
+ -t 1.138363930 -s 0 -d 39 -p tcp -e 60 -c 2 -a 0 -i 8 -k RTR 
- -t 1.138363930 -s 0 -d 39 -p tcp -e 60 -c 2 -a 0 -i 8 -k RTR
h -t 1.138363930 -s 0 -d 39 -p tcp -e 60 -c 2 -a 0 -i 8 -k RTR
r -t 1.142041172 -s 39 -d 39 -p tcp -e 1040 -c 2 -a 0 -i 55 -k AGT
+ -t 1.142041172 -s 39 -d -1 -p ack -e 40 -c 2 -a 0 -i 74 -k AGT 
- -t 1.142041172 -s 39 -d -1 -p ack -e 40 -c 2 -a 0 -i 74 -k AGT
h -t 1.142041172 -s 39 -d -1 -p ack -e 40 -c 2 -a 0 -i 74 -k AGT
+ -t 1.142041172 -s 39 -d 0 -p ack -e 60 -c 2 -a 0 -i 74 -k RTR 
- -t 1.142041172 -s 39 -d 0 -p ack -e 60 -c 2 -a 0 -i 74 -k RTR
h -t 1.142041172 -s 39 -d 0 -p ack -e 60 -c 2 -a 0 -i 74 -k RTR
r -t 1.144067591 -s 0 -d 0 -p ack -e 40 -c 2 -a 0 -i 74 -k AGT
+ -t 1.144067591 -s 0 -d -1 -p tcp -e 1040 -c 2 -a 0 -i 75 -k AGT 
- -t 1.144067591 -s 0 -d -1 -p tcp -e 1040 -c 2 -a 0 -i 75 -k AGT
h -t 1.144067591 -s 0 -d -1 -p tcp -e 1040 -c 2 -a 0 -i 75 -k AGT
+ -t 1.144067591 -s 0 -d -1 -p tcp -e 1040 -c 2 -a 0 -i 76 -k AGT 
- -t 1.144067591 -s 0 -d -1 -p tcp -e 1040 -c 2 -a 0 -i 76 -k AGT
h -t 1.144067591 -s 0 -d -1 -p tcp -e 1040 -c 2 -a 0 -i 76 -k AGT
+ -t 1.144067591 -s 0 -d 39 -p tcp -e 1060 -c 2 -a 0 -i 75 -k RTR 
- -t 1.144067591 -s 0 -d 39 -p tcp -e 1060 -c 2 -a 0 -i 75 -k RTR
h -t 1.144067591 -s 0 -d 39 -p tcp -e 1060 -c 2 -a 0 -i 75 -k RTR
+ -t 1.144067591 -s 0 -d 39 -p tcp -e 1060 -c 2 -a 0 -i 76 -k RTR 
- -t 1.144067591 -s 0 -d 39 -p tcp -e 1060 -c 2 -a 0 -i 76 -k RTR
h -t 1.144067591 -s 0 -d 39 -p tcp -e 1060 -c 2 -a 0 -i 76 -k RTR
r -t 1.154234010 -s 39 -d 39 -p tcp -e 1040 -c 2 -a 0 -i 56 -k AGT
+ -t 1.154234010 -s 39 -d -1 -p ack -e 40 -c 2 -a 0 -i 77 -k AGT 
- -t 1.154234010 -s 39 -d -1 -p ack -e 40 -c 2 -a 0 -i 77 -k AGT
h -t 1.154234010 -s 39 -d -1 -p ack -e 40 -c 2 -a 0 -i 77 -k AGT
+ -t 1.154234010 -s 39 -d 0 -p ack -e 60 -c 2 -a 0 -i 77 -k RTR 
- -t 1.154234010 -s 39 -d 0 -p ack -e 60 -c 2 -a 0 -i 77 -k RTR
h -t 1.154234010 -s 39 -d 0 -p ack -e 60 -c 2 -a 0 -i 77 -k RTR
r -t 1.156520428 -s 0 -d 0 -p ack -e 40 -c 2 -a 0 -i 77 -k AGT
+ -t 1.156520428 -s 0 -d -1 -p tcp -e 1040 -c 2 -a 0 -i 78 -k AGT 
- -t 1.156520428 -s 0 -d -1 -p tcp -e 1040 -c 2 -a 0 -i 78 -k AGT
h -t 1.156520428 -s 0 -d -1 -p tcp -e 1040 -c 2 -a 0 -i 78 -k AGT
+ -t 1.156520428 -s 0 -d -1 -p tcp -e 1040 -c 2 -a 0 -i 79 -k AGT 
- -t 1.156520428 -s 0 -d -1 -p tcp -e 1040 -c 2 -a 0 -i 79 -k AGT
h -t 1.156520428 -s 0 -d -1 -p tcp -e 1040 -c 2 -a 0 -i 79 -k AGT
+ -t 1.156520428 -s 0 -d 39 -p tcp -e 1060 -c 2 -a 0 -i 78 -k RTR 
- -t 1.156520428 -s 0 -d 39 -p tcp -e 1060 -c 2 -a 0 -i 78 -k RTR
h -t 1.156520428 -s 0 -d 39 -p tcp -e 1060 -c 2 -a 0 -i 78 -k RTR
+ -t 1.156520428 -s 0 -d 39 -p tcp -e 1060 -c 2 -a 0 -i 79 -k RTR 
- -t 1.156520428 -s 0 -d 39 -p tcp -e 1060 -c 2 -a 0 -i 79 -k RTR
h -t 1.156520428 -s 0 -d 39 -p tcp -e 1060 -c 2 -a 0 -i 79 -k RTR
r -t 1.166786847 -s 39 -d 39 -p tcp -e 1040 -c 2 -a 0 -i 57 -k AGT
+ -t 1.166786847 -s 39 -d -1 -p ack -e 40 -c 2 -a 0 -i 80 -k AGT 
- -t 1.166786847 -s 39 -d -1 -p ack -e 40 -c 2 -a 0 -i 80 -k AGT
h -t 1.166786847 -s 39 -d -1 -p ack -e 40 -c 2 -a 0 -i 80 -k AGT
+ -t 1.166786847 -s 39 -d 0 -p ack -e 60 -c 2 -a 0 -i 80 -k RTR 
- -t 1.166786847 -s 39 -d 0 -p ack -e 60 -c 2 -a 0 -i 80 -k RTR
h -t 1.166786847 -s 39 -d 0 -p ack -e 60 -c 2 -a 0 -i 80 -k RTR
+ -t 1.168363930 -s 0 -d 39 -p tcp -e 60 -c 2 -a 0 -i 10 -k RTR 
- -t 1.168363930 -s 0 -d 39 -p tcp -e 60 -c 2 -a 0 -i 10 -k RTR
h -t 1.168363930 -s 0 -d 39 -p tcp -e 60 -c 2 -a 0 -i 10 -k RTR
r -t 1.176914072 -s 39 -d 39 -p tcp -e 1040 -c 2 -a 0 -i 58 -k AGT
+ -t 1.176914072 -s 39 -d -1 -p ack -e 40 -c 2 -a 0 -i 81 -k AGT 
- -t 1.176914072 -s 39 -d -1 -p ack -e 40 -c 2 -a 0 -i 81 -k AGT
h -t 1.176914072 -s 39 -d -1 -p ack -e 40 -c 2 -a 0 -i 81 -k AGT
+ -t 1.176914072 -s 39 -d 0 -p ack -e 60 -c 2 -a 0 -i 81 -k RTR 
- -t 1.176914072 -s 39 -d 0 -p ack -e 60 -c 2 -a 0 -i 81 -k RTR
h -t 1.176914072 -s 39 -d 0 -p ack -e 60 -c 2 -a 0 -i 81 -k RTR
r -t 1.187001297 -s 39 -d 39 -p tcp -e 1040 -c 2 -a 0 -i 60 -k AGT
+ -t 1.187001297 -s 39 -d -1 -p ack -e 40 -c 2 -a 0 -i 82 -k AGT 
- -t 1.187001297 -s 39 -d -1 -p ack -e 40 -c 2 -a 0 -i 82 -k AGT
h -t 1.187001297 -s 39 -d -1 -p ack -e 40 -c 2 -a 0 -i 82 -k AGT
+ -t 1.187001297 -s 39 -d 0 -p ack -e 60 -c 2 -a 0 -i 82 -k RTR 
- -t 1.187001297 -s 39 -d 0 -p ack -e 60 -c 2 -a 0 -i 82 -k RTR
h -t 1.187001297 -s 39 -d 0 -p ack -e 60 -c 2 -a 0 -i 82 -k RTR
r -t 1.189287716 -s 0 -d 0 -p ack -e 40 -c 2 -a 0 -i 80 -k AGT
+ -t 1.189287716 -s 0 -d -1 -p tcp -e 1040 -c 2 -a 0 -i 83 -k AGT 
- -t 1.189287716 -s 0 -d -1 -p tcp -e 1040 -c 2 -a 0 -i 83 -k AGT
h -t 1.189287716 -s 0 -d -1 -p tcp -e 1040 -c 2 -a 0 -i 83 -k AGT
+ -t 1.189287716 -s 0 -d -1 -p tcp -e 1040 -c 2 -a 0 -i 84 -k AGT 
- -t 1.189287716 -s 0 -d -1 -p tcp -e 1040 -c 2 -a 0 -i 84 -k AGT
h -t 1.189287716 -s 0 -d -1 -p tcp -e 1040 -c 2 -a 0 -i 84 -k AGT
+ -t 1.189287716 -s 0 -d 39 -p tcp -e 1060 -c 2 -a 0 -i 83 -k RTR 
- -t 1.189287716 -s 0 -d 39 -p tcp -e 1060 -c 2 -a 0 -i 83 -k RTR
h -t 1.189287716 -s 0 -d 39 -p tcp -e 1060 -c 2 -a 0 -i 83 -k RTR
+ -t 1.189287716 -s 0 -d 39 -p tcp -e 1060 -c 2 -a 0 -i 84 -k RTR 
- -t 1.189287716 -s 0 -d 39 -p tcp -e 1060 -c 2 -a 0 -i 84 -k RTR
h -t 1.189287716 -s 0 -d 39 -p tcp -e 1060 -c 2 -a 0 -i 84 -k RTR
+ -t 1.198363930 -s 0 -d 39 -p tcp -e 60 -c 2 -a 0 -i 12 -k RTR 
- -t 1.198363930 -s 0 -d 39 -p tcp -e 60 -c 2 -a 0 -i 12 -k RTR
h -t 1.198363930 -s 0 -d 39 -p tcp -e 60 -c 2 -a 0 -i 12 -k RTR
r -t 1.199394134 -s 39 -d 39 -p tcp -e 1040 -c 2 -a 0 -i 61 -k AGT
+ -t 1.199394134 -s 39 -d -1 -p ack -e 40 -c 2 -a 0 -i 85 -k AGT 
- -t 1.199394134 -s 39 -d -1 -p ack -e 40 -c 2 -a 0 -i 85 -k AGT
h -t 1.199394134 -s 39 -d -1 -p ack -e 40 -c 2 -a 0 -i 85 -k AGT
+ -t 1.199394134 -s 39 -d 0 -p ack -e 60 -c 2 -a 0 -i 85 -k RTR 
- -t 1.199394134 -s 39 -d 0 -p ack -e 60 -c 2 -a 0 -i 85 -k RTR
h -t 1.199394134 -s 39 -d 0 -p ack -e 60 -c 2 -a 0 -i 85 -k RTR
r -t 1.201700553 -s 0 -d 0 -p ack -e 40 -c 2 -a 0 -i 81 -k AGT
+ -t 1.201700553 -s 0 -d -1 -p tcp -e 1040 -c 2 -a 0 -i 86 -k AGT 
- -t 1.201700553 -s 0 -d -1 -p tcp -e 1040 -c 2 -a 0 -i 86 -k AGT
h -t 1.201700553 -s 0 -d -1 -p tcp -e 1040 -c 2 -a 0 -i 86 -k AGT
+ -t 1.201700553 -s 0 -d -1 -p tcp -e 1040 -c 2 -a 0 -i 87 -k AGT 
- -t 1.201700553 -s 0 -d -1 -p tcp -e 1040 -c 2 -a 0 -i 87 -k AGT
h -t 1.201700553 -s 0 -d -1 -p tcp -e 1040 -c 2 -a 0 -i 87 -k AGT
+ -t 1.201700553 -s 0 -d 39 -p tcp -e 1060 -c 2 -a 0 -i 86 -k RTR 
- -t 1.201700553 -s 0 -d 39 -p tcp -e 1060 -c 2 -a 0 -i 86 -k RTR
h -t 1.201700553 -s 0 -d 39 -p tcp -e 1060 -c 2 -a 0 -i 86 -k RTR
+ -t 1.201700553 -s 0 -d 39 -p tcp -e 1060 -c 2 -a 0 -i 87 -k RTR 
- -t 1.201700553 -s 0 -d 39 -p tcp -e 1060 -c 2 -a 0 -i 87 -k RTR
h -t 1.201700553 -s 0 -d 39 -p tcp -e 1060 -c 2 -a 0 -i 87 -k RTR
r -t 1.211826972 -s 39 -d 39 -p tcp -e 1040 -c 2 -a 0 -i 63 -k AGT
+ -t 1.211826972 -s 39 -d -1 -p ack -e 40 -c 2 -a 0 -i 88 -k AGT 
- -t 1.211826972 -s 39 -d -1 -p ack -e 40 -c 2 -a 0 -i 88 -k AGT
h -t 1.211826972 -s 39 -d -1 -p ack -e 40 -c 2 -a 0 -i 88 -k AGT
+ -t 1.211826972 -s 39 -d 0 -p ack -e 60 -c 2 -a 0 -i 88 -k RTR 
- -t 1.211826972 -s 39 -d 0 -p ack -e 60 -c 2 -a 0 -i 88 -k RTR
h -t 1.211826972 -s 39 -d 0 -p ack -e 60 -c 2 -a 0 -i 88 -k RTR
r -t 1.222920197 -s 39 -d 39 -p tcp -e 1040 -c 2 -a 0 -i 64 -k AGT
+ -t 1.222920197 -s 39 -d -1 -p ack -e 40 -c 2 -a 0 -i 89 -k AGT 
- -t 1.222920197 -s 39 -d -1 -p ack -e 40 -c 2 -a 0 -i 89 -k AGT
h -t 1.222920197 -s 39 -d -1 -p ack -e 40 -c 2 -a 0 -i 89 -k AGT
+ -t 1.222920197 -s 39 -d 0 -p ack -e 60 -c 2 -a 0 -i 89 -k RTR 
- -t 1.222920197 -s 39 -d 0 -p ack -e 60 -c 2 -a 0 -i 89 -k RTR
h -t 1.222920197 -s 39 -d 0 -p ack -e 60 -c 2 -a 0 -i 89 -k RTR
r -t 1.225066615 -s 0 -d 0 -p ack -e 40 -c 2 -a 0 -i 82 -k AGT
+ -t 1.225066615 -s 0 -d -1 -p tcp -e 1040 -c 2 -a 0 -i 90 -k AGT 
- -t 1.225066615 -s 0 -d -1 -p tcp -e 1040 -c 2 -a 0 -i 90 -k AGT
h -t 1.225066615 -s 0 -d -1 -p tcp -e 1040 -c 2 -a 0 -i 90 -k AGT
+ -t 1.225066615 -s 0 -d -1 -p tcp -e 1040 -c 2 -a 0 -i 91 -k AGT 
- -t 1.225066615 -s 0 -d -1 -p tcp -e 1040 -c 2 -a 0 -i 91 -k AGT
h -t 1.225066615 -s 0 -d -1 -p tcp -e 1040 -c 2 -a 0 -i 91 -k AGT