Sconfig 0.00000 tap: on snoop: rts? on errs? on
Sconfig 0.00000 salvage: on !bd replies? on
Sconfig 0.00000 grat error: on grat reply: on
Sconfig 0.00000 $reply for props: on ring 0 search: on
Sconfig 0.00000 using MOBICACHE
s 1.000000000 _0_ AGT  --- 0 tcp 40 [0 0 0 0] ------- [0:0 39:0 32 0] [0 0] 0 0
r 1.000000000 _0_ RTR  --- 0 tcp 40 [0 0 0 0] ------- [0:0 39:0 32 0] [0 0] 0 0
s 1.000000000 _0_ AGT  --- 2 tcp 40 [0 0 0 0] ------- [0:1 39:1 32 0] [0 0] 0 0
r 1.000000000 _0_ RTR  --- 2 tcp 40 [0 0 0 0] ------- [0:1 39:1 32 0] [0 0] 0 0
s 1.000000000 _0_ AGT  --- 4 tcp 40 [0 0 0 0] ------- [0:2 39:2 32 0] [0 0] 0 0
r 1.000000000 _0_ RTR  --- 4 tcp 40 [0 0 0 0] ------- [0:2 39:2 32 0] [0 0] 0 0
s 1.000000000 _0_ AGT  --- 6 tcp 40 [0 0 0 0] ------- [0:3 39:3 32 0] [0 0] 0 0
r 1.000000000 _0_ RTR  --- 6 tcp 40 [0 0 0 0] ------- [0:3 39:3 32 0] [0 0] 0 0
s 1.000000000 _0_ AGT  --- 8 tcp 40 [0 0 0 0] ------- [0:4 39:4 32 0] [0 0] 0 0
r 1.000000000 _0_ RTR  --- 8 tcp 40 [0 0 0 0] ------- [0:4 39:4 32 0] [0 0] 0 0
s 1.000000000 _0_ AGT  --- 10 tcp 40 [0 0 0 0] ------- [0:5 39:5 32 0] [0 0] 0 0
r 1.000000000 _0_ RTR  --- 10 tcp 40 [0 0 0 0] ------- [0:5 39:5 32 0] [0 0] 0 0
s 1.000000000 _0_ AGT  --- 12 tcp 40 [0 0 0 0] ------- [0:6 39:6 32 0] [0 0] 0 0
r 1.000000000 _0_ RTR  --- 12 tcp 40 [0 0 0 0] ------- [0:6 39:6 32 0] [0 0] 0 0
s 1.000000000 _0_ AGT  --- 14 tcp 40 [0 0 0 0] ------- [0:7 39:7 32 0] [0 0] 0 0
r 1.000000000 _0_ RTR  --- 14 tcp 40 [0 0 0 0] ------- [0:7 39:7 32 0] [0 0] 0 0
s 1.000000000 _0_ AGT  --- 16 tcp 40 [0 0 0 0] ------- [0:8 39:8 32 0] [0 0] 0 0
r 1.000000000 _0_ RTR  --- 16 tcp 40 [0 0 0 0] ------- [0:8 39:8 32 0] [0 0] 0 0
s 1.000000000 _0_ AGT  --- 18 tcp 40 [0 0 0 0] ------- [0:9 39:9 32 0] [0 0] 0 0
r 1.000000000 _0_ RTR  --- 18 tcp 40 [0 0 0 0] ------- [0:9 39:9 32 0] [0 0] 0 0
s 1.000000000 _0_ AGT  --- 20 tcp 40 [0 0 0 0] ------- [0:10 39:10 32 0] [0 0] 0 0
r 1.000000000 _0_ RTR  --- 20 tcp 40 [0 0 0 0] ------- [0:10 39:10 32 0] [0 0] 0 0
s 1.000000000 _0_ AGT  --- 22 tcp 40 [0 0 0 0] ------- [0:11 39:11 32 0] [0 0] 0 0
r 1.000000000 _0_ RTR  --- 22 tcp 40 [0 0 0 0] ------- [0:11 39:11 32 0] [0 0] 0 0
s 1.000000000 _0_ AGT  --- 24 tcp 40 [0 0 0 0] ------- [0:12 39:12 32 0] [0 0] 0 0
r 1.000000000 _0_ RTR  --- 24 tcp 40 [0 0 0 0] ------- [0:12 39:12 32 0] [0 0] 0 0
s 1.000000000 _0_ AGT  --- 26 tcp 40 [0 0 0 0] ------- [0:13 39:13 32 0] [0 0] 0 0
r 1.000000000 _0_ RTR  --- 26 tcp 40 [0 0 0 0] ------- [0:13 39:13 32 0] [0 0] 0 0
s 1.000000000 _0_ AGT  --- 28 tcp 40 [0 0 0 0] ------- [0:14 39:14 32 0] [0 0] 0 0
r 1.000000000 _0_ RTR  --- 28 tcp 40 [0 0 0 0] ------- [0:14 39:14 32 0] [0 0] 0 0
s 1.000000000 _0_ AGT  --- 30 tcp 40 [0 0 0 0] ------- [0:15 39:15 32 0] [0 0] 0 0
r 1.000000000 _0_ RTR  --- 30 tcp 40 [0 0 0 0] ------- [0:15 39:15 32 0] [0 0] 0 0
s 1.000000000 _0_ AGT  --- 32 tcp 40 [0 0 0 0] ------- [0:16 39:16 32 0] [0 0] 0 0
r 1.000000000 _0_ RTR  --- 32 tcp 40 [0 0 0 0] ------- [0:16 39:16 32 0] [0 0] 0 0
s 1.000000000 _0_ AGT  --- 34 tcp 40 [0 0 0 0] ------- [0:17 39:17 32 0] [0 0] 0 0
r 1.000000000 _0_ RTR  --- 34 tcp 40 [0 0 0 0] ------- [0:17 39:17 32 0] [0 0] 0 0
s 1.000000000 _0_ AGT  --- 36 tcp 40 [0 0 0 0] ------- [0:18 39:18 32 0] [0 0] 0 0
r 1.000000000 _0_ RTR  --- 36 tcp 40 [0 0 0 0] ------- [0:18 39:18 32 0] [0 0] 0 0
s 1.000000000 _0_ AGT  --- 38 tcp 40 [0 0 0 0] ------- [0:19 39:19 32 0] [0 0] 0 0
r 1.000000000 _0_ RTR  --- 38 tcp 40 [0 0 0 0] ------- [0:19 39:19 32 0] [0 0] 0 0
s 1.003997777 _0_ RTR  --- 1 DSR 32 [0 0 0 0] ------- [0:255 39:255 32 0] 1 [1 1] [0 1 0 0->0] [0 0 0 0->0]
r 1.005017877 _1_ RTR  --- 1 DSR 32 [0 ffffffff 0 800] ------- [0:255 39:255 32 0] 1 [1 1] [0 1 0 0->0] [0 0 0 0->0]
r 1.005017877 _5_ RTR  --- 1 DSR 32 [0 ffffffff 0 800] ------- [0:255 39:255 32 0] 1 [1 1] [0 1 0 0->0] [0 0 0 0->0]
r 1.005017919 _6_ RTR  --- 1 DSR 32 [0 ffffffff 0 800] ------- [0:255 39:255 32 0] 1 [1 1] [0 1 0 0->0] [0 0 0 0->0]
r 1.005017977 _2_ RTR  --- 1 DSR 32 [0 ffffffff 0 800] ------- [0:255 39:255 32 0] 1 [1 1] [0 1 0 0->0] [0 0 0 0->0]
r 1.005017977 _10_ RTR  --- 1 DSR 32 [0 ffffffff 0 800] ------- [0:255 39:255 32 0] 1 [1 1] [0 1 0 0->0] [0 0 0 0->0]
r 1.005018001 _7_ RTR  --- 1 DSR 32 [0 ffffffff 0 800] ------- [0:255 39:255 32 0] 1 [1 1] [0 1 0 0->0] [0 0 0 0->0]
r 1.005018001 _11_ RTR  --- 1 DSR 32 [0 ffffffff 0 800] ------- [0:255 39:255 32 0] 1 [1 1] [0 1 0 0->0] [0 0 0 0->0]
r 1.005018060 _12_ RTR  --- 1 DSR 32 [0 ffffffff 0 800] ------- [0:255 39:255 32 0] 1 [1 1] [0 1 0 0->0] [0 0 0 0->0]
r 1.005018077 _3_ RTR  --- 1 DSR 32 [0 ffffffff 0 800] ------- [0:255 39:255 32 0] 1 [1 1] [0 1 0 0->0] [0 0 0 0->0]
r 1.005018077 _15_ RTR  --- 1 DSR 32 [0 ffffffff 0 800] ------- [0:255 39:255 32 0] 1 [1 1] [0 1 0 0->0] [0 0 0 0->0]
r 1.005018093 _8_ RTR  --- 1 DSR 32 [0 ffffffff 0 800] ------- [0:255 39:255 32 0] 1 [1 1] [0 1 0 0->0] [0 0 0 0->0]
r 1.005018093 _16_ RTR  --- 1 DSR 32 [0 ffffffff 0 800] ------- [0:255 39:255 32 0] 1 [1 1] [0 1 0 0->0] [0 0 0 0->0]
r 1.005018138 _13_ RTR  --- 1 DSR 32 [0 ffffffff 0 800] ------- [0:255 39:255 32 0] 1 [1 1] [0 1 0 0->0] [0 0 0 0->0]
r 1.005018138 _17_ RTR  --- 1 DSR 32 [0 ffffffff 0 800] ------- [0:255 39:255 32 0] 1 [1 1] [0 1 0 0->0] [0 0 0 0->0]
r 1.005018177 _4_ RTR  --- 1 DSR 32 [0 ffffffff 0 800] ------- [0:255 39:255 32 0] 1 [1 1] [0 1 0 0->0] [0 0 0 0->0]
r 1.005018177 _20_ RTR  --- 1 DSR 32 [0 ffffffff 0 800] ------- [0:255 39:255 32 0] 1 [1 1] [0 1 0 0->0] [0 0 0 0->0]
r 1.005018190 _9_ RTR  --- 1 DSR 32 [0 ffffffff 0 800] ------- [0:255 39:255 32 0] 1 [1 1] [0 1 0 0->0] [0 0 0 0->0]
r 1.005018190 _21_ RTR  --- 1 DSR 32 [0 ffffffff 0 800] ------- [0:255 39:255 32 0] 1 [1 1] [0 1 0 0->0] [0 0 0 0->0]
r 1.005018201 _18_ RTR  --- 1 DSR 32 [0 ffffffff 0 800] ------- [0:255 39:255 32 0] 1 [1 1] [0 1 0 0->0] [0 0 0 0->0]
r 1.005018224 _14_ RTR  --- 1 DSR 32 [0 ffffffff 0 800] ------- [0:255 39:255 32 0] 1 [1 1] [0 1 0 0->0] [0 0 0 0->0]
r 1.005018224 _22_ RTR  --- 1 DSR 32 [0 ffffffff 0 800] ------- [0:255 39:255 32 0] 1 [1 1] [0 1 0 0->0] [0 0 0 0->0]
r 1.005018277 _19_ RTR  --- 1 DSR 32 [0 ffffffff 0 800] ------- [0:255 39:255 32 0] 1 [1 1] [0 1 0 0->0] [0 0 0 0->0]
r 1.005018277 _23_ RTR  --- 1 DSR 32 [0 ffffffff 0 800] ------- [0:255 39:255 32 0] 1 [1 1] [0 1 0 0->0] [0 0 0 0->0]
r 1.005018277 _25_ RTR  --- 1 DSR 32 [0 ffffffff 0 800] ------- [0:255 39:255 32 0] 1 [1 1] [0 1 0 0->0] [0 0 0 0->0]
r 1.005018287 _26_ RTR  --- 1 DSR 32 [0 ffffffff 0 800] ------- [0:255 39:255 32 0] 1 [1 1] [0 1 0 0->0] [0 0 0 0->0]
r 1.005018316 _27_ RTR  --- 1 DSR 32 [0 ffffffff 0 800] ------- [0:255 39:255 32 0] 1 [1 1] [0 1 0 0->0] [0 0 0 0->0]
r 1.005018343 _24_ RTR  --- 1 DSR 32 [0 ffffffff 0 800] ------- [0:255 39:255 32 0] 1 [1 1] [0 1 0 0->0] [0 0 0 0->0]
r 1.005018360 _28_ RTR  --- 1 DSR 32 [0 ffffffff 0 800] ------- [0:255 39:255 32 0] 1 [1 1] [0 1 0 0->0] [0 0 0 0->0]
r 1.005018377 _30_ RTR  --- 1 DSR 32 [0 ffffffff 0 800] ------- [0:255 39:255 32 0] 1 [1 1] [0 1 0 0->0] [0 0 0 0->0]
r 1.005018386 _31_ RTR  --- 1 DSR 32 [0 ffffffff 0 800] ------- [0:255 39:255 32 0] 1 [1 1] [0 1 0 0->0] [0 0 0 0->0]
r 1.005018410 _32_ RTR  --- 1 DSR 32 [0 ffffffff 0 800] ------- [0:255 39:255 32 0] 1 [1 1] [0 1 0 0->0] [0 0 0 0->0]
r 1.005018418 _29_ RTR  --- 1 DSR 32 [0 ffffffff 0 800] ------- [0:255 39:255 32 0] 1 [1 1] [0 1 0 0->0] [0 0 0 0->0]
r 1.005018448 _33_ RTR  --- 1 DSR 32 [0 ffffffff 0 800] ------- [0:255 39:255 32 0] 1 [1 1] [0 1 0 0->0] [0 0 0 0->0]
r 1.005018477 _35_ RTR  --- 1 DSR 32 [0 ffffffff 0 800] ------- [0:255 39:255 32 0] 1 [1 1] [0 1 0 0->0] [0 0 0 0->0]
r 1.005018484 _36_ RTR  --- 1 DSR 32 [0 ffffffff 0 800] ------- [0:255 39:255 32 0] 1 [1 1] [0 1 0 0->0] [0 0 0 0->0]
r 1.005018498 _34_ RTR  --- 1 DSR 32 [0 ffffffff 0 800] ------- [0:255 39:255 32 0] 1 [1 1] [0 1 0 0->0] [0 0 0 0->0]
r 1.005018505 _37_ RTR  --- 1 DSR 32 [0 ffffffff 0 800] ------- [0:255 39:255 32 0] 1 [1 1] [0 1 0 0->0] [0 0 0 0->0]
r 1.005018539 _38_ RTR  --- 1 DSR 32 [0 ffffffff 0 800] ------- [0:255 39:255 32 0] 1 [1 1] [0 1 0 0->0] [0 0 0 0->0]
r 1.005018583 _39_ RTR  --- 1 DSR 32 [0 ffffffff 0 800] ------- [0:255 39:255 32 0] 1 [1 1] [0 1 0 0->0] [0 0 0 0->0]
s 1.013875287 _39_ RTR  --- 40 DSR 44 [0 0 0 0] ------- [39:255 0:255 254 0] 2 [0 1] [1 1 2 0->39] [0 0 0 0->0]
r 1.018363930 _0_ RTR  --- 40 DSR 44 [13a 0 27 800] ------- [39:255 0:255 254 0] 2 [0 1] [1 1 2 0->39] [0 0 0 0->0]
SFESTs 1.018363930 _0_ 0 [0 -> 39] 1(1) to 39 [0 |39 ]
SFESTs 1.018363930 _0_ 2 [0 -> 39] 1(1) to 39 [0 |39 ]
SFESTs 1.018363930 _0_ 4 [0 -> 39] 1(1) to 39 [0 |39 ]
SFs 1.018363930 _0_ 6 [0 -> 39] 1(0) to 39 
SFs 1.018363930 _0_ 8 [0 -> 39] 1(0) to 39 
SFs 1.018363930 _0_ 10 [0 -> 39] 1(0) to 39 
SFs 1.018363930 _0_ 12 [0 -> 39] 1(0) to 39 
SFs 1.018363930 _0_ 14 [0 -> 39] 1(0) to 39 
SFs 1.018363930 _0_ 16 [0 -> 39] 1(0) to 39 
SFs 1.018363930 _0_ 18 [0 -> 39] 1(0) to 39 
SFs 1.018363930 _0_ 20 [0 -> 39] 1(0) to 39 
SFs 1.018363930 _0_ 22 [0 -> 39] 1(0) to 39 
SFs 1.018363930 _0_ 24 [0 -> 39] 1(0) to 39 
SFs 1.018363930 _0_ 26 [0 -> 39] 1(0) to 39 
SFs 1.018363930 _0_ 28 [0 -> 39] 1(0) to 39 
SFs 1.018363930 _0_ 30 [0 -> 39] 1(0) to 39 
SFs 1.018363930 _0_ 32 [0 -> 39] 1(0) to 39 
SFs 1.018363930 _0_ 34 [0 -> 39] 1(0) to 39 
SFs 1.018363930 _0_ 36 [0 -> 39] 1(0) to 39 
SFs 1.018363930 _0_ 38 [0 -> 39] 1(0) to 39 
s 1.018363930 _0_ RTR  --- 0 tcp 76 [0 0 0 0] ------- [0:0 39:0 32 39] [0 0] 0 0
r 1.020718349 _39_ RTR  --- 0 tcp 76 [13a 27 0 800] ------- [0:0 39:0 32 39] [0 0] 1 0
r 1.020718349 _39_ AGT  --- 0 tcp 40 [13a 27 0 800] ------- [0:0 39:0 32 39] [0 0] 1 0
s 1.020718349 _39_ AGT  --- 41 ack 40 [0 0 0 0] ------- [39:0 0:0 32 0] [0 0] 0 0
r 1.020718349 _39_ RTR  --- 41 ack 40 [0 0 0 0] ------- [39:0 0:0 32 0] [0 0] 0 0
SFESTs 1.020718349 _39_ 41 [39 -> 0] 1(1) to 0 [39 |0 ]
s 1.020718349 _39_ RTR  --- 41 ack 76 [0 0 0 0] ------- [39:0 0:0 32 0] [0 0] 0 0
r 1.023052768 _0_ RTR  --- 41 ack 76 [13a 0 27 800] ------- [39:0 0:0 32 0] [0 0] 1 0
r 1.023052768 _0_ AGT  --- 41 ack 40 [13a 0 27 800] ------- [39:0 0:0 32 0] [0 0] 1 0
s 1.023052768 _0_ AGT  --- 42 tcp 1040 [0 0 0 0] ------- [0:0 39:0 32 0] [1 0] 0 0
r 1.023052768 _0_ RTR  --- 42 tcp 1040 [0 0 0 0] ------- [0:0 39:0 32 0] [1 0] 0 0
SFs 1.023052768 _0_ 42 [0 -> 39] 1(0) to 39 
s 1.023052768 _0_ AGT  --- 43 tcp 1040 [0 0 0 0] ------- [0:0 39:0 32 0] [2 0] 0 0
r 1.023052768 _0_ RTR  --- 43 tcp 1040 [0 0 0 0] ------- [0:0 39:0 32 0] [2 0] 0 0
SFs 1.023052768 _0_ 43 [0 -> 39] 1(0) to 39 
s 1.023052768 _0_ RTR  --- 42 tcp 1060 [0 0 0 0] ------- [0:0 39:0 32 39] [1 0] 0 0
s 1.023052768 _0_ RTR  --- 43 tcp 1060 [0 0 0 0] ------- [0:0 39:0 32 39] [2 0] 0 0
r 1.033419186 _39_ RTR  --- 42 tcp 1060 [13a 27 0 800] ------- [0:0 39:0 32 39] [1 0] 1 0
r 1.033419186 _39_ AGT  --- 42 tcp 1040 [13a 27 0 800] ------- [0:0 39:0 32 39] [1 0] 1 0
s 1.033419186 _39_ AGT  --- 44 ack 40 [0 0 0 0] ------- [39:0 0:0 32 0] [1 0] 0 0
r 1.033419186 _39_ RTR  --- 44 ack 40 [0 0 0 0] ------- [39:0 0:0 32 0] [1 0] 0 0
SFESTs 1.033419186 _39_ 44 [39 -> 0] 1(1) to 0 [39 |0 ]
s 1.033419186 _39_ RTR  --- 44 ack 76 [0 0 0 0] ------- [39:0 0:0 32 0] [1 0] 0 0
r 1.035613605 _0_ RTR  --- 44 ack 76 [13a 0 27 800] ------- [39:0 0:0 32 0] [1 0] 1 0
r 1.035613605 _0_ AGT  --- 44 ack 40 [13a 0 27 800] ------- [39:0 0:0 32 0] [1 0] 1 0
s 1.035613605 _0_ AGT  --- 45 tcp 1040 [0 0 0 0] ------- [0:0 39:0 32 0] [3 0] 0 0
r 1.035613605 _0_ RTR  --- 45 tcp 1040 [0 0 0 0] ------- [0:0 39:0 32 0] [3 0] 0 0
SFs 1.035613605 _0_ 45 [0 -> 39] 1(0) to 39 
s 1.035613605 _0_ AGT  --- 46 tcp 1040 [0 0 0 0] ------- [0:0 39:0 32 0] [4 0] 0 0
r 1.035613605 _0_ RTR  --- 46 tcp 1040 [0 0 0 0] ------- [0:0 39:0 32 0] [4 0] 0 0
SFs 1.035613605 _0_ 46 [0 -> 39] 1(0) to 39 
s 1.035613605 _0_ RTR  --- 45 tcp 1060 [0 0 0 0] ------- [0:0 39:0 32 39] [3 0] 0 0
s 1.035613605 _0_ RTR  --- 46 tcp 1060 [0 0 0 0] ------- [0:0 39:0 32 39] [4 0] 0 0
r 1.045740024 _39_ RTR  --- 43 tcp 1060 [13a 27 0 800] ------- [0:0 39:0 32 39] [2 0] 1 0
r 1.045740024 _39_ AGT  --- 43 tcp 1040 [13a 27 0 800] ------- [0:0 39:0 32 39] [2 0] 1 0
s 1.045740024 _39_ AGT  --- 47 ack 40 [0 0 0 0] ------- [39:0 0:0 32 0] [2 0] 0 0
r 1.045740024 _39_ RTR  --- 47 ack 40 [0 0 0 0] ------- [39:0 0:0 32 0] [2 0] 0 0
SFESTs 1.045740024 _39_ 47 [39 -> 0] 1(1) to 0 [39 |0 ]
s 1.045740024 _39_ RTR  --- 47 ack 76 [0 0 0 0] ------- [39:0 0:0 32 0] [2 0] 0 0
r 1.048154442 _0_ RTR  --- 47 ack 76 [13a 0 27 800] ------- [39:0 0:0 32 0] [2 0] 1 0
r 1.048154442 _0_ AGT  --- 47 ack 40 [13a 0 27 800] ------- [39:0 0:0 32 0] [2 0] 1 0
s 1.048154442 _0_ AGT  --- 48 tcp 1040 [0 0 0 0] ------- [0:0 39:0 32 0] [5 0] 0 0
r 1.048154442 _0_ RTR  --- 48 tcp 1040 [0 0 0 0] ------- [0:0 39:0 32 0] [5 0] 0 0
SFs 1.048154442 _0_ 48 [0 -> 39] 1(0) to 39 
s 1.048154442 _0_ AGT  --- 49 tcp 1040 [0 0 0 0] ------- [0:0 39:0 32 0] [6 0] 0 0
r 1.048154442 _0_ RTR  --- 49 tcp 1040 [0 0 0 0] ------- [0:0 39:0 32 0] [6 0] 0 0
SFs 1.048154442 _0_ 49 [0 -> 39] 1(0) to 39 
s 1.048154442 _0_ RTR  --- 48 tcp 1060 [0 0 0 0] ------- [0:0 39:0 32 39] [5 0] 0 0
s 1.048154442 _0_ RTR  --- 49 tcp 1060 [0 0 0 0] ------- [0:0 39:0 32 39] [6 0] 0 0
s 1.048363930 _0_ RTR  --- 2 tcp 76 [0 0 0 0] ------- [0:1 39:1 32 39] [0 0] 0 0
r 1.058260861 _39_ RTR  --- 45 tcp 1060 [13a 27 0 800] ------- [0:0 39:0 32 39] [3 0] 1 0
r 1.058260861 _39_ AGT  --- 45 tcp 1040 [13a 27 0 800] ------- [0:0 39:0 32 39] [3 0] 1 0
s 1.058260861 _39_ AGT  --- 50 ack 40 [0 0 0 0] ------- [39:0 0:0 32 0] [3 0] 0 0
r 1.058260861 _39_ RTR  --- 50 ack 40 [0 0 0 0] ------- [39:0 0:0 32 0] [3 0] 0 0
SFs 1.058260861 _39_ 50 [39 -> 0] 1(0) to 0 
s 1.058260861 _39_ RTR  --- 50 ack 60 [0 0 0 0] ------- [39:0 0:0 32 0] [3 0] 0 0
r 1.060367280 _0_ RTR  --- 50 ack 60 [13a 0 27 800] ------- [39:0 0:0 32 0] [3 0] 1 0
r 1.060367280 _0_ AGT  --- 50 ack 40 [13a 0 27 800] ------- [39:0 0:0 32 0] [3 0] 1 0
s 1.060367280 _0_ AGT  --- 51 tcp 1040 [0 0 0 0] ------- [0:0 39:0 32 0] [7 0] 0 0
r 1.060367280 _0_ RTR  --- 51 tcp 1040 [0 0 0 0] ------- [0:0 39:0 32 0] [7 0] 0 0
SFs 1.060367280 _0_ 51 [0 -> 39] 1(0) to 39 
s 1.060367280 _0_ AGT  --- 52 tcp 1040 [0 0 0 0] ------- [0:0 39:0 32 0] [8 0] 0 0
r 1.060367280 _0_ RTR  --- 52 tcp 1040 [0 0 0 0] ------- [0:0 39:0 32 0] [8 0] 0 0
SFs 1.060367280 _0_ 52 [0 -> 39] 1(0) to 39 
s 1.060367280 _0_ RTR  --- 51 tcp 1060 [0 0 0 0] ------- [0:0 39:0 32 39] [7 0] 0 0
s 1.060367280 _0_ RTR  --- 52 tcp 1060 [0 0 0 0] ------- [0:0 39:0 32 39] [8 0] 0 0
r 1.070713698 _39_ RTR  --- 46 tcp 1060 [13a 27 0 800] ------- [0:0 39:0 32 39] [4 0] 1 0
r 1.070713698 _39_ AGT  --- 46 tcp 1040 [13a 27 0 800] ------- [0:0 39:0 32 39] [4 0] 1 0
s 1.070713698 _39_ AGT  --- 53 ack 40 [0 0 0 0] ------- [39:0 0:0 32 0] [4 0] 0 0
r 1.070713698 _39_ RTR  --- 53 ack 40 [0 0 0 0] ------- [39:0 0:0 32 0] [4 0] 0 0
SFs 1.070713698 _39_ 53 [39 -> 0] 1(0) to 0 
s 1.070713698 _39_ RTR  --- 53 ack 60 [0 0 0 0] ------- [39:0 0:0 32 0] [4 0] 0 0
s 1.078363930 _0_ RTR  --- 4 tcp 76 [0 0 0 0] ------- [0:2 39:2 32 39] [0 0] 0 0
r 1.080800923 _39_ RTR  --- 48 tcp 1060 [13a 27 0 800] ------- [0:0 39:0 32 39] [5 0] 1 0
r 1.080800923 _39_ AGT  --- 48 tcp 1040 [13a 27 0 800] ------- [0:0 39:0 32 39] [5 0] 1 0
s 1.080800923 _39_ AGT  --- 54 ack 40 [0 0 0 0] ------- [39:0 0:0 32 0] [5 0] 0 0
r 1.080800923 _39_ RTR  --- 54 ack 40 [0 0 0 0] ------- [39:0 0:0 32 0] [5 0] 0 0
SFs 1.080800923 _39_ 54 [39 -> 0] 1(0) to 0 
s 1.080800923 _39_ RTR  --- 54 ack 60 [0 0 0 0] ------- [39:0 0:0 32 0] [5 0] 0 0
r 1.082827342 _0_ RTR  --- 53 ack 60 [13a 0 27 800] ------- [39:0 0:0 32 0] [4 0] 1 0
r 1.082827342 _0_ AGT  --- 53 ack 40 [13a 0 27 800] ------- [39:0 0:0 32 0] [4 0] 1 0
s 1.082827342 _0_ AGT  --- 55 tcp 1040 [0 0 0 0] ------- [0:0 39:0 32 0] [9 0] 0 0
r 1.082827342 _0_ RTR  --- 55 tcp 1040 [0 0 0 0] ------- [0:0 39:0 32 0] [9 0] 0 0
SFs 1.082827342 _0_ 55 [0 -> 39] 1(0) to 39 
s 1.082827342 _0_ AGT  --- 56 tcp 1040 [0 0 0 0] ------- [0:0 39:0 32 0] [10 0] 0 0
r 1.082827342 _0_ RTR  --- 56 tcp 1040 [0 0 0 0] ------- [0:0 39:0 32 0] [10 0] 0 0
SFs 1.082827342 _0_ 56 [0 -> 39] 1(0) to 39 
s 1.082827342 _0_ RTR  --- 55 tcp 1060 [0 0 0 0] ------- [0:0 39:0 32 39] [9 0] 0 0
s 1.082827342 _0_ RTR  --- 56 tcp 1060 [0 0 0 0] ------- [0:0 39:0 32 39] [10 0] 0 0
r 1.085054567 _0_ RTR  --- 54 ack 60 [13a 0 27 800] ------- [39:0 0:0 32 0] [5 0] 1 0
r 1.085054567 _0_ AGT  --- 54 ack 40 [13a 0 27 800] ------- [39:0 0:0 32 0] [5 0] 1 0
s 1.085054567 _0_ AGT  --- 57 tcp 1040 [0 0 0 0] ------- [0:0 39:0 32 0] [11 0] 0 0
r 1.085054567 _0_ RTR  --- 57 tcp 1040 [0 0 0 0] ------- [0:0 39:0 32 0] [11 0] 0 0
SFs 1.085054567 _0_ 57 [0 -> 39] 1(0) to 39 
s 1.085054567 _0_ AGT  --- 58 tcp 1040 [0 0 0 0] ------- [0:0 39:0 32 0] [12 0] 0 0
r 1.085054567 _0_ RTR  --- 58 tcp 1040 [0 0 0 0] ------- [0:0 39:0 32 0] [12 0] 0 0
SFs 1.085054567 _0_ 58 [0 -> 39] 1(0) to 39 
s 1.085054567 _0_ RTR  --- 57 tcp 1060 [0 0 0 0] ------- [0:0 39:0 32 39] [11 0] 0 0
s 1.085054567 _0_ RTR  --- 58 tcp 1060 [0 0 0 0] ------- [0:0 39:0 32 39] [12 0] 0 0
r 1.095360986 _39_ RTR  --- 49 tcp 1060 [13a 27 0 800] ------- [0:0 39:0 32 39] [6 0] 1 0
r 1.095360986 _39_ AGT  --- 49 tcp 1040 [13a 27 0 800] ------- [0:0 39:0 32 39] [6 0] 1 0
s 1.095360986 _39_ AGT  --- 59 ack 40 [0 0 0 0] ------- [39:0 0:0 32 0] [6 0] 0 0
r 1.095360986 _39_ RTR  --- 59 ack 40 [0 0 0 0] ------- [39:0 0:0 32 0] [6 0] 0 0
SFs 1.095360986 _39_ 59 [39 -> 0] 1(0) to 0 
s 1.095360986 _39_ RTR  --- 59 ack 60 [0 0 0 0] ------- [39:0 0:0 32 0] [6 0] 0 0
r 1.097567404 _0_ RTR  --- 59 ack 60 [13a 0 27 800] ------- [39:0 0:0 32 0] [6 0] 1 0
r 1.097567404 _0_ AGT  --- 59 ack 40 [13a 0 27 800] ------- [39:0 0:0 32 0] [6 0] 1 0
s 1.097567404 _0_ AGT  --- 60 tcp 1040 [0 0 0 0] ------- [0:0 39:0 32 0] [13 0] 0 0
r 1.097567404 _0_ RTR  --- 60 tcp 1040 [0 0 0 0] ------- [0:0 39:0 32 0] [13 0] 0 0
SFs 1.097567404 _0_ 60 [0 -> 39] 1(0) to 39 
s 1.097567404 _0_ AGT  --- 61 tcp 1040 [0 0 0 0] ------- [0:0 39:0 32 0] [14 0] 0 0
r 1.097567404 _0_ RTR  --- 61 tcp 1040 [0 0 0 0] ------- [0:0 39:0 32 0] [14 0] 0 0
SFs 1.097567404 _0_ 61 [0 -> 39] 1(0) to 39 
s 1.097567404 _0_ RTR  --- 60 tcp 1060 [0 0 0 0] ------- [0:0 39:0 32 39] [13 0] 0 0
s 1.097567404 _0_ RTR  --- 61 tcp 1060 [0 0 0 0] ------- [0:0 39:0 32 39] [14 0] 0 0
r 1.099941823 _39_ RTR  --- 2 tcp 76 [13a 27 0 800] ------- [0:1 39:1 32 39] [0 0] 1 0
r 1.099941823 _39_ AGT  --- 2 tcp 40 [13a 27 0 800] ------- [0:1 39:1 32 39] [0 0] 1 0
s 1.099941823 _39_ AGT  --- 62 ack 40 [0 0 0 0] ------- [39:1 0:1 32 0] [0 0] 0 0
r 1.099941823 _39_ RTR  --- 62 ack 40 [0 0 0 0] ------- [39:1 0:1 32 0] [0 0] 0 0
SFs 1.099941823 _39_ 62 [39 -> 0] 1(0) to 0 
s 1.099941823 _39_ RTR  --- 62 ack 60 [0 0 0 0] ------- [39:1 0:1 32 0] [0 0] 0 0
r 1.102248242 _0_ RTR  --- 62 ack 60 [13a 0 27 800] ------- [39:1 0:1 32 0] [0 0] 1 0
r 1.102248242 _0_ AGT  --- 62 ack 40 [13a 0 27 800] ------- [39:1 0:1 32 0] [0 0] 1 0
s 1.102248242 _0_ AGT  --- 63 tcp 1040 [0 0 0 0] ------- [0:1 39:1 32 0] [1 0] 0 0
r 1.102248242 _0_ RTR  --- 63 tcp 1040 [0 0 0 0] ------- [0:1 39:1 32 0] [1 0] 0 0
SFs 1.102248242 _0_ 63 [0 -> 39] 1(0) to 39 
s 1.102248242 _0_ AGT  --- 64 tcp 1040 [0 0 0 0] ------- [0:1 39:1 32 0] [2 0] 0 0
r 1.102248242 _0_ RTR  --- 64 tcp 1040 [0 0 0 0] ------- [0:1 39:1 32 0] [2 0] 0 0
SFs 1.102248242 _0_ 64 [0 -> 39] 1(0) to 39 
s 1.102248242 _0_ RTR  --- 63 tcp 1060 [0 0 0 0] ------- [0:1 39:1 32 39] [1 0] 0 0
s 1.102248242 _0_ RTR  --- 64 tcp 1060 [0 0 0 0] ------- [0:1 39:1 32 39] [2 0] 0 0
s 1.108363930 _0_ RTR  --- 6 tcp 60 [0 0 0 0] ------- [0:3 39:3 32 39] [0 0] 0 0
r 1.112354660 _39_ RTR  --- 51 tcp 1060 [13a 27 0 800] ------- [0:0 39:0 32 39] [7 0] 1 0
r 1.112354660 _39_ AGT  --- 51 tcp 1040 [13a 27 0 800] ------- [0:0 39:0 32 39] [7 0] 1 0
s 1.112354660 _39_ AGT  --- 65 ack 40 [0 0 0 0] ------- [39:0 0:0 32 0] [7 0] 0 0
r 1.112354660 _39_ RTR  --- 65 ack 40 [0 0 0 0] ------- [39:0 0:0 32 0] [7 0] 0 0
SFs 1.112354660 _39_ 65 [39 -> 0] 1(0) to 0 
s 1.112354660 _39_ RTR  --- 65 ack 60 [0 0 0 0] ------- [39:0 0:0 32 0] [7 0] 0 0
r 1.114741079 _0_ RTR  --- 65 ack 60 [13a 0 27 800] ------- [39:0 0:0 32 0] [7 0] 1 0
r 1.114741079 _0_ AGT  --- 65 ack 40 [13a 0 27 800] ------- [39:0 0:0 32 0] [7 0] 1 0
s 1.114741079 _0_ AGT  --- 66 tcp 1040 [0 0 0 0] ------- [0:0 39:0 32 0] [15 0] 0 0
r 1.114741079 _0_ RTR  --- 66 tcp 1040 [0 0 0 0] ------- [0:0 39:0 32 0] [15 0] 0 0
SFs 1.114741079 _0_ 66 [0 -> 39] 1(0) to 39 
s 1.114741079 _0_ AGT  --- 67 tcp 1040 [0 0 0 0] ------- [0:0 39:0 32 0] [16 0] 0 0
r 1.114741079 _0_ RTR  --- 67 tcp 1040 [0 0 0 0] ------- [0:0 39:0 32 0] [16 0] 0 0
SFs 1.114741079 _0_ 67 [0 -> 39] 1(0) to 39 
s 1.114741079 _0_ RTR  --- 66 tcp 1060 [0 0 0 0] ------- [0:0 39:0 32 39] [15 0] 0 0
s 1.114741079 _0_ RTR  --- 67 tcp 1060 [0 0 0 0] ------- [0:0 39:0 32 39] [16 0] 0 0
r 1.124847498 _39_ RTR  --- 52 tcp 1060 [13a 27 0 800] ------- [0:0 39:0 32 39] [8 0] 1 0
r 1.124847498 _39_ AGT  --- 52 tcp 1040 [13a 27 0 800] ------- [0:0 39:0 32 39] [8 0] 1 0
s 1.124847498 _39_ AGT  --- 68 ack 40 [0 0 0 0] ------- [39:0 0:0 32 0] [8 0] 0 0
r 1.124847498 _39_ RTR  --- 68 ack 40 [0 0 0 0] ------- [39:0 0:0 32 0] [8 0] 0 0
SFs 1.124847498 _39_ 68 [39 -> 0] 1(0) to 0 
s 1.124847498 _39_ RTR  --- 68 ack 60 [0 0 0 0] ------- [39:0 0:0 32 0] [8 0] 0 0
r 1.127293916 _0_ RTR  --- 68 ack 60 [13a 0 27 800] ------- [39:0 0:0 32 0] [8 0] 1 0
r 1.127293916 _0_ AGT  --- 68 ack 40 [13a 0 27 800] ------- [39:0 0:0 32 0] [8 0] 1 0
s 1.127293916 _0_ AGT  --- 69 tcp 1040 [0 0 0 0] ------- [0:0 39:0 32 0] [17 0] 0 0
r 1.127293916 _0_ RTR  --- 69 tcp 1040 [0 0 0 0] ------- [0:0 39:0 32 0] [17 0] 0 0
SFs 1.127293916 _0_ 69 [0 -> 39] 1(0) to 39 
s 1.127293916 _0_ AGT  --- 70 tcp 1040 [0 0 0 0] ------- [0:0 39:0 32 0] [18 0] 0 0
r 1.127293916 _0_ RTR  --- 70 tcp 1040 [0 0 0 0] ------- [0:0 39:0 32 0] [18 0] 0 0
SFs 1.127293916 _0_ 70 [0 -> 39] 1(0) to 39 
s 1.127293916 _0_ RTR  --- 69 tcp 1060 [0 0 0 0] ------- [0:0 39:0 32 39] [17 0] 0 0
s 1.127293916 _0_ RTR  --- 70 tcp 1060 [0 0 0 0] ------- [0:0 39:0 32 39] [18 0] 0 0
r 1.129528335 _39_ RTR  --- 4 tcp 76 [13a 27 0 800] ------- [0:2 39:2 32 39] [0 0] 1 0
r 1.129528335 _39_ AGT  --- 4 tcp 40 [13a 27 0 800] ------- [0:2 39:2 32 39] [0 0] 1 0
s 1.129528335 _39_ AGT  --- 71 ack 40 [0 0 0 0] ------- [39:2 0:2 32 0] [0 0] 0 0
r 1.129528335 _39_ RTR  --- 71 ack 40 [0 0 0 0] ------- [39:2 0:2 32 0] [0 0] 0 0
SFs 1.129528335 _39_ 71 [39 -> 0] 1(0) to 0 
s 1.129528335 _39_ RTR  --- 71 ack 60 [0 0 0 0] ------- [39:2 0:2 32 0] [0 0] 0 0
r 1.131734754 _0_ RTR  --- 71 ack 60 [13a 0 27 800] ------- [39:2 0:2 32 0] [0 0] 1 0
r 1.131734754 _0_ AGT  --- 71 ack 40 [13a 0 27 800] ------- [39:2 0:2 32 0] [0 0] 1 0
s 1.131734754 _0_ AGT  --- 72 tcp 1040 [0 0 0 0] ------- [0:2 39:2 32 0] [1 0] 0 0
r 1.131734754 _0_ RTR  --- 72 tcp 1040 [0 0 0 0] ------- [0:2 39:2 32 0] [1 0] 0 0
SFs 1.131734754 _0_ 72 [0 -> 39] 1(0) to 39 
s 1.131734754 _0_ AGT  --- 73 tcp 1040 [0 0 0 0] ------- [0:2 39:2 32 0] [2 0] 0 0
r 1.131734754 _0_ RTR  --- 73 tcp 1040 [0 0 0 0] ------- [0:2 39:2 32 0] [2 0] 0 0
SFs 1.131734754 _0_ 73 [0 -> 39] 1(0) to 39 
s 1.131734754 _0_ RTR  --- 72 tcp 1060 [0 0 0 0] ------- [0:2 39:2 32 39] [1 0] 0 0
s 1.131734754 _0_ RTR  --- 73 tcp 1060 [0 0 0 0] ------- [0:2 39:2 32 39] [2 0] 0 0
s 1.138363930 _0_ RTR  --- 8 tcp 60 [0 0 0 0] ------- [0:4 39:4 32 39] [0 0] 0 0
r 1.142041172 _39_ RTR  --- 55 tcp 1060 [13a 27 0 800] ------- [0:0 39:0 32 39] [9 0] 1 0
r 1.142041172 _39_ AGT  --- 55 tcp 1040 [13a 27 0 800] ------- [0:0 39:0 32 39] [9 0] 1 0
s 1.142041172 _39_ AGT  --- 74 ack 40 [0 0 0 0] ------- [39:0 0:0 32 0] [9 0] 0 0
r 1.142041172 _39_ RTR  --- 74 ack 40 [0 0 0 0] ------- [39:0 0:0 32 0] [9 0] 0 0
SFs 1.142041172 _39_ 74 [39 -> 0] 1(0) to 0 
s 1.142041172 _39_ RTR  --- 74 ack 60 [0 0 0 0] ------- [39:0 0:0 32 0] [9 0] 0 0
r 1.144067591 _0_ RTR  --- 74 ack 60 [13a 0 27 800] ------- [39:0 0:0 32 0] [9 0] 1 0
r 1.144067591 _0_ AGT  --- 74 ack 40 [13a 0 27 800] ------- [39:0 0:0 32 0] [9 0] 1 0
s 1.144067591 _0_ AGT  --- 75 tcp 1040 [0 0 0 0] ------- [0:0 39:0 32 0] [19 0] 0 0
r 1.144067591 _0_ RTR  --- 75 tcp 1040 [0 0 0 0] ------- [0:0 39:0 32 0] [19 0] 0 0
SFs 1.144067591 _0_ 75 [0 -> 39] 1(0) to 39 
s 1.144067591 _0_ AGT  --- 76 tcp 1040 [0 0 0 0] ------- [0:0 39:0 32 0] [20 0] 0 0
r 1.144067591 _0_ RTR  --- 76 tcp 1040 [0 0 0 0] ------- [0:0 39:0 32 0] [20 0] 0 0
SFs 1.144067591 _0_ 76 [0 -> 39] 1(0) to 39 
s 1.144067591 _0_ RTR  --- 75 tcp 1060 [0 0 0 0] ------- [0:0 39:0 32 39] [19 0] 0 0
s 1.144067591 _0_ RTR  --- 76 tcp 1060 [0 0 0 0] ------- [0:0 39:0 32 39] [20 0] 0 0
r 1.154234010 _39_ RTR  --- 56 tcp 1060 [13a 27 0 800] ------- [0:0 39:0 32 39] [10 0] 1 0
r 1.154234010 _39_ AGT  --- 56 tcp 1040 [13a 27 0 800] ------- [0:0 39:0 32 39] [10 0] 1 0
s 1.154234010 _39_ AGT  --- 77 ack 40 [0 0 0 0] ------- [39:0 0:0 32 0] [10 0] 0 0
r 1.154234010 _39_ RTR  --- 77 ack 40 [0 0 0 0] ------- [39:0 0:0 32 0] [10 0] 0 0
SFs 1.154234010 _39_ 77 [39 -> 0] 1(0) to 0 
s 1.154234010 _39_ RTR  --- 77 ack 60 [0 0 0 0] ------- [39:0 0:0 32 0] [10 0] 0 0
r 1.156520428 _0_ RTR  --- 77 ack 60 [13a 0 27 800] ------- [39:0 0:0 32 0] [10 0] 1 0
r 1.156520428 _0_ AGT  --- 77 ack 40 [13a 0 27 800] ------- [39:0 0:0 32 0] [10 0] 1 0
s 1.156520428 _0_ AGT  --- 78 tcp 1040 [0 0 0 0] ------- [0:0 39:0 32 0] [21 0] 0 0
r 1.156520428 _0_ RTR  --- 78 tcp 1040 [0 0 0 0] ------- [0:0 39:0 32 0] [21 0] 0 0
SFs 1.156520428 _0_ 78 [0 -> 39] 1(0) to 39 
s 1.156520428 _0_ AGT  --- 79 tcp 1040 [0 0 0 0] ------- [0:0 39:0 32 0] [22 0] 0 0
r 1.156520428 _0_ RTR  --- 79 tcp 1040 [0 0 0 0] ------- [0:0 39:0 32 0] [22 0] 0 0
SFs 1.156520428 _0_ 79 [0 -> 39] 1(0) to 39 
s 1.156520428 _0_ RTR  --- 78 tcp 1060 [0 0 0 0] ------- [0:0 39:0 32 39] [21 0] 0 0
s 1.156520428 _0_ RTR  --- 79 tcp 1060 [0 0 0 0] ------- [0:0 39:0 32 39] [22 0] 0 0
r 1.166786847 _39_ RTR  --- 57 tcp 1060 [13a 27 0 800] ------- [0:0 39:0 32 39] [11 0] 1 0
r 1.166786847 _39_ AGT  --- 57 tcp 1040 [13a 27 0 800] ------- [0:0 39:0 32 39] [11 0] 1 0
s 1.166786847 _39_ AGT  --- 80 ack 40 [0 0 0 0] ------- [39:0 0:0 32 0] [11 0] 0 0
r 1.166786847 _39_ RTR  --- 80 ack 40 [0 0 0 0] ------- [39:0 0:0 32 0] [11 0] 0 0
SFs 1.166786847 _39_ 80 [39 -> 0] 1(0) to 0 
s 1.166786847 _39_ RTR  --- 80 ack 60 [0 0 0 0] ------- [39:0 0:0 32 0] [11 0] 0 0
s 1.168363930 _0_ RTR  --- 10 tcp 60 [0 0 0 0] ------- [0:5 39:5 32 39] [0 0] 0 0
r 1.176914072 _39_ RTR  --- 58 tcp 1060 [13a 27 0 800] ------- [0:0 39:0 32 39] [12 0] 1 0
r 1.176914072 _39_ AGT  --- 58 tcp 1040 [13a 27 0 800] ------- [0:0 39:0 32 39] [12 0] 1 0
s 1.176914072 _39_ AGT  --- 81 ack 40 [0 0 0 0] ------- [39:0 0:0 32 0] [12 0] 0 0
r 1.176914072 _39_ RTR  --- 81 ack 40 [0 0 0 0] ------- [39:0 0:0 32 0] [12 0] 0 0
SFs 1.176914072 _39_ 81 [39 -> 0] 1(0) to 0 
s 1.176914072 _39_ RTR  --- 81 ack 60 [0 0 0 0] ------- [39:0 0:0 32 0] [12 0] 0 0
r 1.187001297 _39_ RTR  --- 60 tcp 1060 [13a 27 0 800] ------- [0:0 39:0 32 39] [13 0] 1 0
r 1.187001297 _39_ AGT  --- 60 tcp 1040 [13a 27 0 800] ------- [0:0 39:0 32 39] [13 0] 1 0
s 1.187001297 _39_ AGT  --- 82 ack 40 [0 0 0 0] ------- [39:0 0:0 32 0] [13 0] 0 0
r 1.187001297 _39_ RTR  --- 82 ack 40 [0 0 0 0] ------- [39:0 0:0 32 0] [13 0] 0 0
SFs 1.187001297 _39_ 82 [39 -> 0] 1(0) to 0 
s 1.187001297 _39_ RTR  --- 82 ack 60 [0 0 0 0] ------- [39:0 0:0 32 0] [13 0] 0 0
r 1.189287716 _0_ RTR  --- 80 ack 60 [13a 0 27 800] ------- [39:0 0:0 32 0] [11 0] 1 0
r 1.189287716 _0_ AGT  --- 80 ack 40 [13a 0 27 800] ------- [39:0 0:0 32 0] [11 0] 1 0
s 1.189287716 _0_ AGT  --- 83 tcp 1040 [0 0 0 0] ------- [0:0 39:0 32 0] [23 0] 0 0
r 1.189287716 _0_ RTR  --- 83 tcp 1040 [0 0 0 0] ------- [0:0 39:0 32 0] [23 0] 0 0
SFs 1.189287716 _0_ 83 [0 -> 39] 1(0) to 39 
s 1.189287716 _0_ AGT  --- 84 tcp 1040 [0 0 0 0] ------- [0:0 39:0 32 0] [24 0] 0 0
r 1.189287716 _0_ RTR  --- 84 tcp 1040 [0 0 0 0] ------- [0:0 39:0 32 0] [24 0] 0 0
SFs 1.189287716 _0_ 84 [0 -> 39] 1(0) to 39 
s 1.189287716 _0_ RTR  --- 83 tcp 1060 [0 0 0 0] ------- [0:0 39:0 32 39] [23 0] 0 0
s 1.189287716 _0_ RTR  --- 84 tcp 1060 [0 0 0 0] ------- [0:0 39:0 32 39] [24 0] 0 0
s 1.198363930 _0_ RTR  --- 12 tcp 60 [0 0 0 0] ------- [0:6 39:6 32 39] [0 0] 0 0
r 1.199394134 _39_ RTR  --- 61 tcp 1060 [13a 27 0 800] ------- [0:0 39:0 32 39] [14 0] 1 0
r 1.199394134 _39_ AGT  --- 61 tcp 1040 [13a 27 0 800] ------- [0:0 39:0 32 39] [14 0] 1 0
s 1.199394134 _39_ AGT  --- 85 ack 40 [0 0 0 0] ------- [39:0 0:0 32 0] [14 0] 0 0
r 1.199394134 _39_ RTR  --- 85 ack 40 [0 0 0 0] ------- [39:0 0:0 32 0] [14 0] 0 0
SFs 1.199394134 _39_ 85 [39 -> 0] 1(0) to 0 
s 1.199394134 _39_ RTR  --- 85 ack 60 [0 0 0 0] ------- [39:0 0:0 32 0] [14 0] 0 0
r 1.201700553 _0_ RTR  --- 81 ack 60 [13a 0 27 800] ------- [39:0 0:0 32 0] [12 0] 1 0
r 1.201700553 _0_ AGT  --- 81 ack 40 [13a 0 27 800] ------- [39:0 0:0 32 0] [12 0] 1 0
s 1.201700553 _0_ AGT  --- 86 tcp 1040 [0 0 0 0] ------- [0:0 39:0 32 0] [25 0] 0 0
r 1.201700553 _0_ RTR  --- 86 tcp 1040 [0 0 0 0] ------- [0:0 39:0 32 0] [25 0] 0 0
SFs 1.201700553 _0_ 86 [0 -> 39] 1(0) to 39 
s 1.201700553 _0_ AGT  --- 87 tcp 1040 [0 0 0 0] ------- [0:0 39:0 32 0] [26 0] 0 0
r 1.201700553 _0_ RTR  --- 87 tcp 1040 [0 0 0 0] ------- [0:0 39:0 32 0] [26 0] 0 0
SFs 1.201700553 _0_ 87 [0 -> 39] 1(0) to 39 
s 1.201700553 _0_ RTR  --- 86 tcp 1060 [0 0 0 0] ------- [0:0 39:0 32 39] [25 0] 0 0
s 1.201700553 _0_ RTR  --- 87 tcp 1060 [0 0 0 0] ------- [0:0 39:0 32 39] [26 0] 0 0
r 1.211826972 _39_ RTR  --- 63 tcp 1060 [13a 27 0 800] ------- [0:1 39:1 32 39] [1 0] 1 0
r 1.211826972 _39_ AGT  --- 63 tcp 1040 [13a 27 0 800] ------- [0:1 39:1 32 39] [1 0] 1 0
s 1.211826972 _39_ AGT  --- 88 ack 40 [0 0 0 0] ------- [39:1 0:1 32 0] [1 0] 0 0
r 1.211826972 _39_ RTR  --- 88 ack 40 [0 0 0 0] ------- [39:1 0:1 32 0] [1 0] 0 0
SFs 1.211826972 _39_ 88 [39 -> 0] 1(0) to 0 
s 1.211826972 _39_ RTR  --- 88 ack 60 [0 0 0 0] ------- [39:1 0:1 32 0] [1 0] 0 0